 Entering Gaussian System, Link 0=g16
 Initial command:
 /curc/sw/install/gaussian/g16_c.02/g16/l1.exe "/scratch/local/7413716/Gau-1680727.inp" -scrdir="/scratch/local/7413716/"
 Entering Link 1 = /curc/sw/install/gaussian/g16_c.02/g16/l1.exe PID=   1680728.
  
 Copyright (c) 1988-2021, Gaussian, Inc.  All Rights Reserved.
  
 This is part of the Gaussian(R) 16 program.  It is based on
 the Gaussian(R) 09 system (copyright 2009, Gaussian, Inc.),
 the Gaussian(R) 03 system (copyright 2003, Gaussian, Inc.),
 the Gaussian(R) 98 system (copyright 1998, Gaussian, Inc.),
 the Gaussian(R) 94 system (copyright 1995, Gaussian, Inc.),
 the Gaussian 92(TM) system (copyright 1992, Gaussian, Inc.),
 the Gaussian 90(TM) system (copyright 1990, Gaussian, Inc.),
 the Gaussian 88(TM) system (copyright 1988, Gaussian, Inc.),
 the Gaussian 86(TM) system (copyright 1986, Carnegie Mellon
 University), and the Gaussian 82(TM) system (copyright 1983,
 Carnegie Mellon University). Gaussian is a federally registered
 trademark of Gaussian, Inc.
  
 This software contains proprietary and confidential information,
 including trade secrets, belonging to Gaussian, Inc.
  
 This software is provided under written license and may be
 used, copied, transmitted, or stored only in accord with that
 written license.
  
 The following legend is applicable only to US Government
 contracts under FAR:
  
                    RESTRICTED RIGHTS LEGEND
  
 Use, reproduction and disclosure by the US Government is
 subject to restrictions as set forth in subparagraphs (a)
 and (c) of the Commercial Computer Software - Restricted
 Rights clause in FAR 52.227-19.
  
 Gaussian, Inc.
 340 Quinnipiac St., Bldg. 40, Wallingford CT 06492
  
  
 ---------------------------------------------------------------
 Warning -- This program may not be used in any manner that
 competes with the business of Gaussian, Inc. or will provide
 assistance to any competitor of Gaussian, Inc.  The licensee
 of this program is prohibited from giving any competitor of
 Gaussian, Inc. access to this program.  By using this program,
 the user acknowledges that Gaussian, Inc. is engaged in the
 business of creating and licensing software in the field of
 computational chemistry and represents and warrants to the
 licensee that it is not a competitor of Gaussian, Inc. and that
 it will not use this program in any manner prohibited above.
 ---------------------------------------------------------------
  

 Cite this work as:
 Gaussian 16, Revision C.02,
 M. J. Frisch, G. W. Trucks, H. B. Schlegel, G. E. Scuseria, 
 M. A. Robb, J. R. Cheeseman, G. Scalmani, V. Barone, 
 G. A. Petersson, H. Nakatsuji, X. Li, M. Caricato, A. V. Marenich, 
 J. Bloino, B. G. Janesko, R. Gomperts, B. Mennucci, H. P. Hratchian, 
 J. V. Ortiz, A. F. Izmaylov, J. L. Sonnenberg, D. Williams-Young, 
 F. Ding, F. Lipparini, F. Egidi, J. Goings, B. Peng, A. Petrone, 
 T. Henderson, D. Ranasinghe, V. G. Zakrzewski, J. Gao, N. Rega, 
 G. Zheng, W. Liang, M. Hada, M. Ehara, K. Toyota, R. Fukuda, 
 J. Hasegawa, M. Ishida, T. Nakajima, Y. Honda, O. Kitao, H. Nakai, 
 T. Vreven, K. Throssell, J. A. Montgomery, Jr., J. E. Peralta, 
 F. Ogliaro, M. J. Bearpark, J. J. Heyd, E. N. Brothers, K. N. Kudin, 
 V. N. Staroverov, T. A. Keith, R. Kobayashi, J. Normand, 
 K. Raghavachari, A. P. Rendell, J. C. Burant, S. S. Iyengar, 
 J. Tomasi, M. Cossi, J. M. Millam, M. Klene, C. Adamo, R. Cammi, 
 J. W. Ochterski, R. L. Martin, K. Morokuma, O. Farkas, 
 J. B. Foresman, and D. J. Fox, Gaussian, Inc., Wallingford CT, 2019.
 
 ******************************************
 Gaussian 16:  ES64L-G16RevC.02  7-Dec-2021
                19-Jul-2024 
 ******************************************
 %NProcShared=32
 Will use up to   32 processors via shared memory.
 %Chk=tddft
 --------------------------------------------
 #P B3LYP/6-311+G(2d,p) TD(NStates=20,Root=0)
 --------------------------------------------
 1/38=1,172=1/1;
 2/12=2,17=6,18=5,40=1/2;
 3/5=4,6=6,7=112,11=9,25=1,30=1,74=-5/1,2,3,8;
 4//1;
 5/5=2,38=5/2;
 8/6=1,10=2,108=20/1;
 9/41=20,42=1,70=2/14;
 6/7=2,8=2,9=2,10=2/1;
 99/5=1,9=1/99;
 Leave Link    1 at Fri Jul 19 12:01:39 2024, MaxMem=           0 cpu:               0.8 elap:               0.2
 (Enter /curc/sw/install/gaussian/g16_c.02/g16/l101.exe)
 -----------------------------------------------------
 TD-DFT excited state calculation: B3LYP/6-311+G(2d,p)
 -----------------------------------------------------
 Symbolic Z-matrix:
 Charge =  0 Multiplicity = 1
 C                     10.70051   5.44882   23.71103 
 C                     9.86535   6.36033   23.06568 
 C                     11.92708   5.09157   23.15315 
 C                     10.20494   6.81277   21.73154 
 C                     11.36552   6.33847   21.05453 
 C                     12.28918   5.58033   21.83391 
 C                     12.86133   4.31545   23.9032 
 C                     14.13694   4.09733   23.44877 
 C                     14.53031   4.64821   22.20398 
 C                     13.6257   5.33579   21.43452 
 C                     8.71898   6.89515   23.72297 
 C                     7.97054   7.8934    23.15017 
 C                     8.32225   8.3755    21.86646 
 C                     9.37377   7.81691   21.18403 
 H                     8.47903   6.52006   24.71974 
 H                     7.118     8.32084   23.67852 
 H                     7.74314   9.17777   21.40694 
 H                     9.62716   8.17517   20.18813 
 H                     10.4301   5.07732   24.70245 
 H                     13.95536   5.76717   20.4966 
 H                     15.55371   4.52044   21.84723 
 H                     12.54422   3.93771   24.87737 
 H                     14.8505   3.52914   24.04618 
 H                     11.6372   6.71833   20.07691 
 
 ITRead=  0  0  0  0  0  0  0  0  0  0  0  0  0  0  0  0  0  0  0  0
 ITRead=  0  0  0  0
 MicOpt= -1 -1 -1 -1 -1 -1 -1 -1 -1 -1 -1 -1 -1 -1 -1 -1 -1 -1 -1 -1
 MicOpt= -1 -1 -1 -1
 NAtoms=     24 NQM=       24 NQMF=       0 NMMI=      0 NMMIF=      0
                NMic=       0 NMicF=      0.
                    Isotopes and Nuclear Properties:
 (Nuclear quadrupole moments (NQMom) in fm**2, nuclear magnetic moments (NMagM)
  in nuclear magnetons)

  Atom         1           2           3           4           5           6           7           8           9          10
 IAtWgt=          12          12          12          12          12          12          12          12          12          12
 AtmWgt=  12.0000000  12.0000000  12.0000000  12.0000000  12.0000000  12.0000000  12.0000000  12.0000000  12.0000000  12.0000000
 NucSpn=           0           0           0           0           0           0           0           0           0           0
 AtZEff=  -0.0000000  -0.0000000  -0.0000000  -0.0000000  -0.0000000  -0.0000000  -0.0000000  -0.0000000  -0.0000000  -0.0000000
 NQMom=    0.0000000   0.0000000   0.0000000   0.0000000   0.0000000   0.0000000   0.0000000   0.0000000   0.0000000   0.0000000
 NMagM=    0.0000000   0.0000000   0.0000000   0.0000000   0.0000000   0.0000000   0.0000000   0.0000000   0.0000000   0.0000000
 AtZNuc=   6.0000000   6.0000000   6.0000000   6.0000000   6.0000000   6.0000000   6.0000000   6.0000000   6.0000000   6.0000000

  Atom        11          12          13          14          15          16          17          18          19          20
 IAtWgt=          12          12          12          12           1           1           1           1           1           1
 AtmWgt=  12.0000000  12.0000000  12.0000000  12.0000000   1.0078250   1.0078250   1.0078250   1.0078250   1.0078250   1.0078250
 NucSpn=           0           0           0           0           1           1           1           1           1           1
 AtZEff=  -0.0000000  -0.0000000  -0.0000000  -0.0000000  -0.0000000  -0.0000000  -0.0000000  -0.0000000  -0.0000000  -0.0000000
 NQMom=    0.0000000   0.0000000   0.0000000   0.0000000   0.0000000   0.0000000   0.0000000   0.0000000   0.0000000   0.0000000
 NMagM=    0.0000000   0.0000000   0.0000000   0.0000000   2.7928460   2.7928460   2.7928460   2.7928460   2.7928460   2.7928460
 AtZNuc=   6.0000000   6.0000000   6.0000000   6.0000000   1.0000000   1.0000000   1.0000000   1.0000000   1.0000000   1.0000000

  Atom        21          22          23          24
 IAtWgt=           1           1           1           1
 AtmWgt=   1.0078250   1.0078250   1.0078250   1.0078250
 NucSpn=           1           1           1           1
 AtZEff=  -0.0000000  -0.0000000  -0.0000000  -0.0000000
 NQMom=    0.0000000   0.0000000   0.0000000   0.0000000
 NMagM=    2.7928460   2.7928460   2.7928460   2.7928460
 AtZNuc=   1.0000000   1.0000000   1.0000000   1.0000000
 Leave Link  101 at Fri Jul 19 12:01:40 2024, MaxMem=   104857600 cpu:               0.1 elap:               1.5
 (Enter /curc/sw/install/gaussian/g16_c.02/g16/l202.exe)
                          Input orientation:                          
 ---------------------------------------------------------------------
 Center     Atomic      Atomic             Coordinates (Angstroms)
 Number     Number       Type             X           Y           Z
 ---------------------------------------------------------------------
      1          6           0       10.700510    5.448820   23.711030
      2          6           0        9.865350    6.360330   23.065680
      3          6           0       11.927080    5.091570   23.153150
      4          6           0       10.204940    6.812770   21.731540
      5          6           0       11.365520    6.338470   21.054530
      6          6           0       12.289180    5.580330   21.833910
      7          6           0       12.861330    4.315450   23.903200
      8          6           0       14.136940    4.097330   23.448770
      9          6           0       14.530310    4.648210   22.203980
     10          6           0       13.625700    5.335790   21.434520
     11          6           0        8.718980    6.895150   23.722970
     12          6           0        7.970540    7.893400   23.150170
     13          6           0        8.322250    8.375500   21.866460
     14          6           0        9.373770    7.816910   21.184030
     15          1           0        8.479030    6.520060   24.719740
     16          1           0        7.118000    8.320840   23.678520
     17          1           0        7.743140    9.177770   21.406940
     18          1           0        9.627160    8.175170   20.188130
     19          1           0       10.430100    5.077320   24.702450
     20          1           0       13.955360    5.767170   20.496600
     21          1           0       15.553710    4.520440   21.847230
     22          1           0       12.544220    3.937710   24.877370
     23          1           0       14.850500    3.529140   24.046180
     24          1           0       11.637200    6.718330   20.076910
 ---------------------------------------------------------------------
                    Distance matrix (angstroms):
                    1          2          3          4          5
     1  C    0.000000
     2  C    1.394568   0.000000
     3  C    1.394034   2.422423   0.000000
     4  C    2.454451   1.449121   2.819445   0.000000
     5  C    2.879359   2.509126   2.504858   1.424868   0.000000
     6  C    2.462671   2.828535   1.452721   2.423519   1.426659
     7  C    2.447570   3.722750   1.427501   4.243716   3.800655
     8  C    3.701940   4.849166   2.441185   5.077708   4.293700
     9  C    4.192797   5.043385   2.806118   4.859768   3.767507
    10  C    3.708370   4.224997   2.428712   3.737819   2.501634
    11  C    2.453258   1.425562   3.724178   2.486093   3.799294
    12  C    3.707192   2.438800   4.848141   2.858814   4.281986
    13  C    4.198097   2.807169   5.043269   2.450480   3.751028
    14  C    3.708614   2.429791   4.221884   1.413827   2.483873
    15  H    2.664587   2.164096   4.047695   3.463204   4.668893
    16  H    4.591724   3.430321   5.816481   3.948950   5.371828
    17  H    5.287716   3.897841   6.103412   3.429147   4.616000
    18  H    4.582127   3.410377   4.856909   2.138242   2.673202
    19  H    1.092725   2.155011   2.154410   3.448012   3.971502
    20  H    4.585625   4.866230   3.409929   4.084606   2.710155
    21  H    5.281022   6.101414   3.896673   5.820438   4.634063
    22  H    2.653878   4.040749   2.164530   4.861527   4.665521
    23  H    4.584748   5.816248   3.432940   6.141743   5.383994
    24  H    3.961802   3.492902   3.491938   2.190454   1.083441
                    6          7          8          9         10
     6  C    0.000000
     7  C    2.491834   0.000000
     8  C    2.867277   1.371592   0.000000
     9  C    2.455293   2.404906   1.416937   0.000000
    10  C    1.416191   2.778441   2.419164   1.372281   0.000000
    11  C    4.247779   4.883277   6.103874   6.413082   5.634226
    12  C    5.072818   6.106440   7.247330   7.379506   6.439383
    13  C    4.852893   6.421492   7.390336   7.248905   6.128050
    14  C    3.731521   5.640672   6.453845   6.137659   4.929261
    15  H    4.871175   4.973087   6.284658   6.815487   6.219596
    16  H    6.136292   7.005674   8.194897   8.402667   7.503081
    17  H    5.812947   7.487946   8.417875   8.198650   7.026100
    18  H    4.065481   6.257718   6.899179   6.367415   5.060029
    19  H    3.455100   2.670230   4.033951   4.820603   4.577994
    20  H    2.144636   3.861258   3.396564   2.120798   1.083724
    21  H    3.432302   3.393810   2.179722   1.091303   2.133623
    22  H    3.467837   1.091904   2.145491   3.405345   3.870070
    23  H    3.957509   2.143717   1.090370   2.179115   3.403658
    24  H    2.192526   4.681113   4.948513   4.144865   2.776446
                   11         12         13         14         15
    11  C    0.000000
    12  C    1.372868   0.000000
    13  C    2.407376   1.415638   0.000000
    14  C    2.779318   2.416736   1.372380   0.000000
    15  H    1.091705   2.146666   3.407117   3.870869   0.000000
    16  H    2.144226   1.090267   2.176412   3.400724   2.485830
    17  H    3.395087   2.177193   1.090946   2.135552   4.310406
    18  H    3.867601   3.405505   2.135349   1.088289   4.959141
    19  H    2.681757   4.048372   4.833618   4.582627   2.426617
    20  H    6.253117   6.883339   6.357030   5.066060   6.956432
    21  H    7.474703   8.401130   8.194869   7.035496   7.893091
    22  H    4.971071   6.288820   6.825290   6.224203   4.818625
    23  H    7.002144   8.196551   8.417626   7.521399   7.070708
    24  H    4.673438   4.926471   4.115531   2.748765   5.618649
                   16         17         18         19         20
    16  H    0.000000
    17  H    2.507031   0.000000
    18  H    4.301154   2.457689   0.000000
    19  H    4.747511   5.907100   5.533577   0.000000
    20  H    7.962119   7.145109   4.962553   5.531051   0.000000
    21  H    9.431748   9.104372   7.157769   5.891840   2.435828
    22  H    7.077636   7.909013   6.960911   2.408072   4.952715
    23  H    9.104236   9.454479   7.984574   4.729428   4.290638
    24  H    5.996899   4.793905   2.484957   5.054268   2.540612
                   21         22         23         24
    21  H    0.000000
    22  H    4.310261   0.000000
    23  H    2.512481   2.485304   0.000000
    24  H    4.827401   5.621294   6.020908   0.000000
 Stoichiometry    C14H10
 Framework group  C1[X(C14H10)]
 Deg. of freedom    66
 Full point group                 C1      NOp   1
 Largest Abelian subgroup         C1      NOp   1
 Largest concise Abelian subgroup C1      NOp   1
                         Standard orientation:                         
 ---------------------------------------------------------------------
 Center     Atomic      Atomic             Coordinates (Angstroms)
 Number     Number       Type             X           Y           Z
 ---------------------------------------------------------------------
      1          6           0        0.003909   -1.386121   -0.212101
      2          6           0       -1.210358   -0.703665   -0.144058
      3          6           0        1.211926   -0.691853   -0.167177
      4          6           0       -1.213969    0.744744   -0.189345
      5          6           0       -0.007007    1.491335   -0.316201
      6          6           0        1.209397    0.760865   -0.167429
      7          6           0        2.445383   -1.399071   -0.039951
      8          6           0        3.627842   -0.739729    0.179876
      9          6           0        3.623167    0.674086    0.273760
     10          6           0        2.460023    1.376642    0.082277
     11          6           0       -2.437403   -1.408471    0.028669
     12          6           0       -3.619282   -0.741020    0.234674
     13          6           0       -3.625656    0.674596    0.239256
     14          6           0       -2.468446    1.370459   -0.005835
     15          1           0       -2.403751   -2.499602    0.039612
     16          1           0       -4.545442   -1.291099    0.402971
     17          1           0       -4.556336    1.215878    0.415357
     18          1           0       -2.481862    2.458522   -0.023538
     19          1           0        0.009443   -2.478829   -0.214432
     20          1           0        2.476473    2.455735    0.180991
     21          1           0        4.547724    1.211807    0.490543
     22          1           0        2.413486   -2.489925   -0.075642
     23          1           0        4.558284   -1.293911    0.306623
     24          1           0       -0.015171    2.574638   -0.300964
 ---------------------------------------------------------------------
 Rotational constants (GHZ):           2.0859008           0.4578030           0.3791735
 Leave Link  202 at Fri Jul 19 12:01:40 2024, MaxMem=   104857600 cpu:               0.2 elap:               0.0
 (Enter /curc/sw/install/gaussian/g16_c.02/g16/l301.exe)
 Standard basis: 6-311+G(2d,p) (5D, 7F)
 Ernie: Thresh=  0.10000D-02 Tol=  0.10000D-05 Strict=F.
 There are   466 symmetry adapted cartesian basis functions of A   symmetry.
 There are   438 symmetry adapted basis functions of A   symmetry.
   438 basis functions,   668 primitive gaussians,   466 cartesian basis functions
    47 alpha electrons       47 beta electrons
       nuclear repulsion energy       766.4648408551 Hartrees.
 IExCor=  402 DFT=T Ex+Corr=B3LYP ExCW=0 ScaHFX=  0.200000
 ScaDFX=  0.800000  0.720000  1.000000  0.810000 ScalE2=  1.000000  1.000000
 IRadAn=      5 IRanWt=     -1 IRanGd=            0 ICorTp=0 IEmpDi=  4
 NAtoms=   24 NActive=   24 NUniq=   24 SFac= 1.00D+00 NAtFMM=   60 NAOKFM=F Big=F
 Integral buffers will be    131072 words long.
 Regular integral format.
 Two-electron integral symmetry is turned on.
 Leave Link  301 at Fri Jul 19 12:01:41 2024, MaxMem=   104857600 cpu:               0.1 elap:               0.0
 (Enter /curc/sw/install/gaussian/g16_c.02/g16/l302.exe)
 NPDir=0 NMtPBC=     1 NCelOv=     1 NCel=       1 NClECP=     1 NCelD=      1
         NCelK=      1 NCelE2=     1 NClLst=     1 CellRange=     0.0.
 One-electron integrals computed using PRISM.
 One-electron integral symmetry used in STVInt
 PrsmSu:  requested number of processors reduced to:  27 ShMem   1 Linda.
 NBasis=   438 RedAO= T EigKep=  1.18D-06  NBF=   438
 NBsUse=   434 1.00D-06 EigRej=  7.15D-07 NBFU=   434
 Precomputing XC quadrature grid using
 IXCGrd= 4 IRadAn=           5 IRanWt=          -1 IRanGd=           0 AccXCQ= 0.00D+00.
 Generated NRdTot=       0 NPtTot=           0 NUsed=           0 NTot=          32
 NSgBfM=   466   466   466   466   466 MxSgAt=    24 MxSgA2=    24.
 Leave Link  302 at Fri Jul 19 12:01:41 2024, MaxMem=   104857600 cpu:               8.1 elap:               0.4
 (Enter /curc/sw/install/gaussian/g16_c.02/g16/l303.exe)
 DipDrv:  MaxL=1.
 Leave Link  303 at Fri Jul 19 12:01:41 2024, MaxMem=   104857600 cpu:               0.4 elap:               0.0
 (Enter /curc/sw/install/gaussian/g16_c.02/g16/l308.exe)
 Leave Link  308 at Fri Jul 19 12:01:42 2024, MaxMem=   104857600 cpu:               0.5 elap:               0.1
 (Enter /curc/sw/install/gaussian/g16_c.02/g16/l401.exe)
 ExpMin= 4.38D-02 ExpMax= 4.56D+03 ExpMxC= 6.82D+02 IAcc=3 IRadAn=         5 AccDes= 0.00D+00
 Harris functional with IExCor=  402 and IRadAn=       5 diagonalized for initial guess.
 HarFok:  IExCor=  402 AccDes= 0.00D+00 IRadAn=         5 IDoV= 1 UseB2=F ITyADJ=14
 ICtDFT=  3500011 ScaDFX=  1.000000  1.000000  1.000000  1.000000
 FoFCou: FMM=F IPFlag=           0 FMFlag=      100000 FMFlg1=           0
         NFxFlg=           0 DoJE=T BraDBF=F KetDBF=T FulRan=T
         wScrn=  0.000000 ICntrl=       500 IOpCl=  0 I1Cent=   200000004 NGrid=           0
         NMat0=    1 NMatS0=      1 NMatT0=    0 NMatD0=    1 NMtDS0=    0 NMtDT0=    0
 Petite list used in FoFCou.
 Harris En= -539.704738908866    
 JPrj=0 DoOrth=F DoCkMO=F.
 Leave Link  401 at Fri Jul 19 12:01:43 2024, MaxMem=   104857600 cpu:              15.6 elap:               0.6
 (Enter /curc/sw/install/gaussian/g16_c.02/g16/l502.exe)
 Integral symmetry usage will be decided dynamically.
 Closed shell SCF:
 Using DIIS extrapolation, IDIIS=  1040.
 NGot=   104857600 LenX=   104403590 LenY=   104185968
 Requested convergence on RMS density matrix=1.00D-08 within 128 cycles.
 Requested convergence on MAX density matrix=1.00D-06.
 Requested convergence on             energy=1.00D-06.
 No special actions if energy rises.
 Fock matrices will be formed incrementally for  20 cycles.

 Cycle   1  Pass 1  IDiag  1:
 FoFJK:  IHMeth= 1 ICntrl=       0 DoSepK=F KAlg= 0 I1Cent=           0 FoldK=F
 IRaf= 880000000 NMat=       1 IRICut=       1 DoRegI=T DoRafI=F ISym2E= 0 IDoP0=0 IntGTp=1.
 FoFCou: FMM=F IPFlag=           0 FMFlag=      100000 FMFlg1=           0
         NFxFlg=           0 DoJE=F BraDBF=F KetDBF=F FulRan=T
         wScrn=  0.000000 ICntrl=         0 IOpCl=  0 I1Cent=           0 NGrid=           0
         NMat0=    1 NMatS0=      1 NMatT0=    0 NMatD0=    1 NMtDS0=    0 NMtDT0=    0
 Symmetry not used in FoFCou.
 E= -539.354375892531    
 DIIS: error= 3.07D-02 at cycle   1 NSaved=   1.
 NSaved= 1 IEnMin= 1 EnMin= -539.354375892531     IErMin= 1 ErrMin= 3.07D-02
 ErrMax= 3.07D-02  0.00D+00 EMaxC= 1.00D-01 BMatC= 3.11D-01 BMatP= 3.11D-01
 IDIUse=3 WtCom= 6.93D-01 WtEn= 3.07D-01
 Coeff-Com:  0.100D+01
 Coeff-En:   0.100D+01
 Coeff:      0.100D+01
 Gap=     0.127 Goal=   None    Shift=    0.000
 GapD=    0.127 DampG=1.000 DampE=0.500 DampFc=0.5000 IDamp=-1.
 Damping current iteration by 5.00D-01
 RMSDP=2.24D-02 MaxDP=3.18D+00              OVMax= 1.83D-01

 Cycle   2  Pass 1  IDiag  1:
 RMSU=  8.29D-03    CP:  1.53D+00
 E= -539.498130920687     Delta-E=       -0.143755028156 Rises=F Damp=T
 DIIS: error= 5.35D-03 at cycle   2 NSaved=   2.
 NSaved= 2 IEnMin= 2 EnMin= -539.498130920687     IErMin= 2 ErrMin= 5.35D-03
 ErrMax= 5.35D-03  0.00D+00 EMaxC= 1.00D-01 BMatC= 1.81D-02 BMatP= 3.11D-01
 IDIUse=3 WtCom= 9.46D-01 WtEn= 5.35D-02
 Coeff-Com: -0.292D-01 0.103D+01
 Coeff-En:   0.221D-01 0.978D+00
 Coeff:     -0.265D-01 0.103D+01
 Gap=     0.211 Goal=   None    Shift=    0.000
 RMSDP=1.02D-02 MaxDP=1.35D+00 DE=-1.44D-01 OVMax= 1.16D-01

 Cycle   3  Pass 1  IDiag  1:
 RMSU=  4.49D-03    CP:  1.08D+00  2.17D-01
 E= -539.654689823801     Delta-E=       -0.156558903115 Rises=F Damp=F
 DIIS: error= 7.23D-03 at cycle   3 NSaved=   3.
 NSaved= 3 IEnMin= 3 EnMin= -539.654689823801     IErMin= 2 ErrMin= 5.35D-03
 ErrMax= 7.23D-03  0.00D+00 EMaxC= 1.00D-01 BMatC= 1.11D-02 BMatP= 1.81D-02
 IDIUse=3 WtCom= 9.28D-01 WtEn= 7.23D-02
 Coeff-Com: -0.780D-01 0.456D+00 0.622D+00
 Coeff-En:   0.000D+00 0.000D+00 0.100D+01
 Coeff:     -0.723D-01 0.423D+00 0.649D+00
 Gap=     0.126 Goal=   None    Shift=    0.000
 RMSDP=2.89D-03 MaxDP=3.47D-01 DE=-1.57D-01 OVMax= 5.74D-02

 Cycle   4  Pass 1  IDiag  1:
 RMSU=  1.07D-03    CP:  1.19D+00  3.84D-01  6.20D-01
 E= -539.662219124603     Delta-E=       -0.007529300802 Rises=F Damp=F
 DIIS: error= 3.61D-03 at cycle   4 NSaved=   4.
 NSaved= 4 IEnMin= 4 EnMin= -539.662219124603     IErMin= 4 ErrMin= 3.61D-03
 ErrMax= 3.61D-03  0.00D+00 EMaxC= 1.00D-01 BMatC= 3.71D-03 BMatP= 1.11D-02
 IDIUse=3 WtCom= 9.64D-01 WtEn= 3.61D-02
 Coeff-Com: -0.478D-01 0.182D+00 0.409D+00 0.456D+00
 Coeff-En:   0.000D+00 0.000D+00 0.252D+00 0.748D+00
 Coeff:     -0.461D-01 0.175D+00 0.404D+00 0.467D+00
 Gap=     0.125 Goal=   None    Shift=    0.000
 RMSDP=1.13D-03 MaxDP=1.27D-01 DE=-7.53D-03 OVMax= 4.42D-02

 Cycle   5  Pass 1  IDiag  1:
 RMSU=  5.36D-04    CP:  1.15D+00  3.47D-01  7.03D-01  4.04D-01
 E= -539.665686600152     Delta-E=       -0.003467475549 Rises=F Damp=F
 DIIS: error= 1.72D-03 at cycle   5 NSaved=   5.
 NSaved= 5 IEnMin= 5 EnMin= -539.665686600152     IErMin= 5 ErrMin= 1.72D-03
 ErrMax= 1.72D-03  0.00D+00 EMaxC= 1.00D-01 BMatC= 4.10D-04 BMatP= 3.71D-03
 IDIUse=3 WtCom= 9.83D-01 WtEn= 1.72D-02
 Coeff-Com: -0.215D-01 0.623D-01 0.176D+00 0.294D+00 0.490D+00
 Coeff-En:   0.000D+00 0.000D+00 0.000D+00 0.107D+00 0.893D+00
 Coeff:     -0.211D-01 0.612D-01 0.173D+00 0.290D+00 0.497D+00
 Gap=     0.125 Goal=   None    Shift=    0.000
 RMSDP=4.17D-04 MaxDP=3.98D-02 DE=-3.47D-03 OVMax= 1.83D-02

 Cycle   6  Pass 1  IDiag  1:
 RMSU=  1.09D-04    CP:  1.16D+00  3.58D-01  6.82D-01  6.02D-01  5.54D-01
 E= -539.666094571550     Delta-E=       -0.000407971398 Rises=F Damp=F
 DIIS: error= 7.29D-04 at cycle   6 NSaved=   6.
 NSaved= 6 IEnMin= 6 EnMin= -539.666094571550     IErMin= 6 ErrMin= 7.29D-04
 ErrMax= 7.29D-04  0.00D+00 EMaxC= 1.00D-01 BMatC= 7.77D-05 BMatP= 4.10D-04
 IDIUse=3 WtCom= 9.93D-01 WtEn= 7.29D-03
 Coeff-Com: -0.737D-02 0.141D-01 0.556D-01 0.129D+00 0.346D+00 0.463D+00
 Coeff-En:   0.000D+00 0.000D+00 0.000D+00 0.000D+00 0.175D+00 0.825D+00
 Coeff:     -0.731D-02 0.140D-01 0.552D-01 0.128D+00 0.345D+00 0.466D+00
 Gap=     0.125 Goal=   None    Shift=    0.000
 RMSDP=1.62D-04 MaxDP=1.85D-02 DE=-4.08D-04 OVMax= 5.17D-03

 Cycle   7  Pass 1  IDiag  1:
 RMSU=  3.22D-05    CP:  1.16D+00  3.52D-01  6.99D-01  5.41D-01  6.66D-01
                    CP:  5.44D-01
 E= -539.666180031274     Delta-E=       -0.000085459724 Rises=F Damp=F
 DIIS: error= 7.32D-05 at cycle   7 NSaved=   7.
 NSaved= 7 IEnMin= 7 EnMin= -539.666180031274     IErMin= 7 ErrMin= 7.32D-05
 ErrMax= 7.32D-05  0.00D+00 EMaxC= 1.00D-01 BMatC= 1.01D-06 BMatP= 7.77D-05
 IDIUse=1 WtCom= 1.00D+00 WtEn= 0.00D+00
 Coeff-Com: -0.243D-02 0.378D-02 0.183D-01 0.456D-01 0.136D+00 0.208D+00
 Coeff-Com:  0.590D+00
 Coeff:     -0.243D-02 0.378D-02 0.183D-01 0.456D-01 0.136D+00 0.208D+00
 Coeff:      0.590D+00
 Gap=     0.125 Goal=   None    Shift=    0.000
 RMSDP=2.26D-05 MaxDP=2.81D-03 DE=-8.55D-05 OVMax= 6.18D-04

 Cycle   8  Pass 1  IDiag  1:
 RMSU=  7.94D-06    CP:  1.16D+00  3.53D-01  6.97D-01  5.50D-01  6.56D-01
                    CP:  5.93D-01  7.66D-01
 E= -539.666180615634     Delta-E=       -0.000000584360 Rises=F Damp=F
 DIIS: error= 5.94D-05 at cycle   8 NSaved=   8.
 NSaved= 8 IEnMin= 8 EnMin= -539.666180615634     IErMin= 8 ErrMin= 5.94D-05
 ErrMax= 5.94D-05  0.00D+00 EMaxC= 1.00D-01 BMatC= 4.97D-07 BMatP= 1.01D-06
 IDIUse=1 WtCom= 1.00D+00 WtEn= 0.00D+00
 Coeff-Com: -0.233D-03-0.976D-04 0.174D-02 0.621D-02 0.282D-01 0.558D-01
 Coeff-Com:  0.421D+00 0.488D+00
 Coeff:     -0.233D-03-0.976D-04 0.174D-02 0.621D-02 0.282D-01 0.558D-01
 Coeff:      0.421D+00 0.488D+00
 Gap=     0.125 Goal=   None    Shift=    0.000
 RMSDP=1.69D-05 MaxDP=2.45D-03 DE=-5.84D-07 OVMax= 2.80D-04

 Cycle   9  Pass 1  IDiag  1:
 RMSU=  3.82D-06    CP:  1.16D+00  3.52D-01  6.98D-01  5.45D-01  6.61D-01
                    CP:  5.71D-01  8.71D-01  6.21D-01
 E= -539.666181172181     Delta-E=       -0.000000556547 Rises=F Damp=F
 DIIS: error= 1.02D-05 at cycle   9 NSaved=   9.
 NSaved= 9 IEnMin= 9 EnMin= -539.666181172181     IErMin= 9 ErrMin= 1.02D-05
 ErrMax= 1.02D-05  0.00D+00 EMaxC= 1.00D-01 BMatC= 1.44D-08 BMatP= 4.97D-07
 IDIUse=1 WtCom= 1.00D+00 WtEn= 0.00D+00
 Coeff-Com: -0.130D-04-0.187D-03 0.439D-04 0.101D-02 0.774D-02 0.166D-01
 Coeff-Com:  0.166D+00 0.238D+00 0.571D+00
 Coeff:     -0.130D-04-0.187D-03 0.439D-04 0.101D-02 0.774D-02 0.166D-01
 Coeff:      0.166D+00 0.238D+00 0.571D+00
 Gap=     0.125 Goal=   None    Shift=    0.000
 RMSDP=1.28D-06 MaxDP=7.81D-05 DE=-5.57D-07 OVMax= 5.18D-05

 Cycle  10  Pass 1  IDiag  1:
 RMSU=  7.47D-07    CP:  1.16D+00  3.52D-01  6.98D-01  5.45D-01  6.61D-01
                    CP:  5.73D-01  8.70D-01  6.07D-01  7.50D-01
 E= -539.666181184875     Delta-E=       -0.000000012694 Rises=F Damp=F
 DIIS: error= 2.98D-06 at cycle  10 NSaved=  10.
 NSaved=10 IEnMin=10 EnMin= -539.666181184875     IErMin=10 ErrMin= 2.98D-06
 ErrMax= 2.98D-06  0.00D+00 EMaxC= 1.00D-01 BMatC= 3.23D-09 BMatP= 1.44D-08
 IDIUse=1 WtCom= 1.00D+00 WtEn= 0.00D+00
 Coeff-Com:  0.295D-04-0.922D-04-0.292D-03-0.443D-03 0.130D-03 0.583D-03
 Coeff-Com:  0.270D-01 0.614D-01 0.347D+00 0.565D+00
 Coeff:      0.295D-04-0.922D-04-0.292D-03-0.443D-03 0.130D-03 0.583D-03
 Coeff:      0.270D-01 0.614D-01 0.347D+00 0.565D+00
 Gap=     0.125 Goal=   None    Shift=    0.000
 RMSDP=3.62D-07 MaxDP=1.07D-05 DE=-1.27D-08 OVMax= 2.06D-05

 Cycle  11  Pass 1  IDiag  1:
 RMSU=  2.98D-07    CP:  1.16D+00  3.52D-01  6.98D-01  5.45D-01  6.61D-01
                    CP:  5.73D-01  8.69D-01  6.19D-01  7.56D-01  7.98D-01
 E= -539.666181188103     Delta-E=       -0.000000003228 Rises=F Damp=F
 DIIS: error= 6.88D-07 at cycle  11 NSaved=  11.
 NSaved=11 IEnMin=11 EnMin= -539.666181188103     IErMin=11 ErrMin= 6.88D-07
 ErrMax= 6.88D-07  0.00D+00 EMaxC= 1.00D-01 BMatC= 1.58D-10 BMatP= 3.23D-09
 IDIUse=1 WtCom= 1.00D+00 WtEn= 0.00D+00
 Coeff-Com:  0.118D-04-0.258D-04-0.130D-03-0.252D-03-0.310D-03-0.717D-03
 Coeff-Com:  0.154D-02 0.135D-01 0.128D+00 0.271D+00 0.587D+00
 Coeff:      0.118D-04-0.258D-04-0.130D-03-0.252D-03-0.310D-03-0.717D-03
 Coeff:      0.154D-02 0.135D-01 0.128D+00 0.271D+00 0.587D+00
 Gap=     0.125 Goal=   None    Shift=    0.000
 RMSDP=2.25D-07 MaxDP=1.18D-05 DE=-3.23D-09 OVMax= 4.71D-06

 Cycle  12  Pass 1  IDiag  1:
 RMSU=  9.02D-08    CP:  1.16D+00  3.52D-01  6.98D-01  5.45D-01  6.61D-01
                    CP:  5.72D-01  8.70D-01  6.31D-01  7.86D-01  7.95D-01
                    CP:  6.86D-01
 E= -539.666181188259     Delta-E=       -0.000000000155 Rises=F Damp=F
 DIIS: error= 1.77D-07 at cycle  12 NSaved=  12.
 NSaved=12 IEnMin=12 EnMin= -539.666181188259     IErMin=12 ErrMin= 1.77D-07
 ErrMax= 1.77D-07  0.00D+00 EMaxC= 1.00D-01 BMatC= 1.14D-11 BMatP= 1.58D-10
 IDIUse=1 WtCom= 1.00D+00 WtEn= 0.00D+00
 Coeff-Com:  0.207D-05-0.285D-05-0.294D-04-0.705D-04-0.108D-03-0.326D-03
 Coeff-Com: -0.150D-02 0.483D-03 0.255D-01 0.630D-01 0.253D+00 0.660D+00
 Coeff:      0.207D-05-0.285D-05-0.294D-04-0.705D-04-0.108D-03-0.326D-03
 Coeff:     -0.150D-02 0.483D-03 0.255D-01 0.630D-01 0.253D+00 0.660D+00
 Gap=     0.125 Goal=   None    Shift=    0.000
 RMSDP=4.82D-08 MaxDP=2.67D-06 DE=-1.55D-10 OVMax= 1.47D-06

 Cycle  13  Pass 1  IDiag  1:
 RMSU=  2.73D-08    CP:  1.16D+00  3.52D-01  6.98D-01  5.45D-01  6.61D-01
                    CP:  5.72D-01  8.70D-01  6.30D-01  7.85D-01  7.90D-01
                    CP:  7.52D-01  7.70D-01
 E= -539.666181188280     Delta-E=       -0.000000000021 Rises=F Damp=F
 DIIS: error= 5.27D-08 at cycle  13 NSaved=  13.
 NSaved=13 IEnMin=13 EnMin= -539.666181188280     IErMin=13 ErrMin= 5.27D-08
 ErrMax= 5.27D-08  0.00D+00 EMaxC= 1.00D-01 BMatC= 1.35D-12 BMatP= 1.14D-11
 IDIUse=1 WtCom= 1.00D+00 WtEn= 0.00D+00
 Coeff-Com:  0.133D-06 0.605D-06-0.391D-05-0.170D-04-0.342D-04-0.119D-03
 Coeff-Com: -0.919D-03-0.115D-02 0.121D-02 0.494D-02 0.685D-01 0.313D+00
 Coeff-Com:  0.614D+00
 Coeff:      0.133D-06 0.605D-06-0.391D-05-0.170D-04-0.342D-04-0.119D-03
 Coeff:     -0.919D-03-0.115D-02 0.121D-02 0.494D-02 0.685D-01 0.313D+00
 Coeff:      0.614D+00
 Gap=     0.125 Goal=   None    Shift=    0.000
 RMSDP=2.98D-08 MaxDP=4.11D-06 DE=-2.09D-11 OVMax= 5.42D-07

 Cycle  14  Pass 1  IDiag  1:
 RMSU=  1.14D-08    CP:  1.16D+00  3.52D-01  6.98D-01  5.45D-01  6.61D-01
                    CP:  5.72D-01  8.70D-01  6.29D-01  7.85D-01  7.94D-01
                    CP:  7.71D-01  7.91D-01  9.37D-01
 E= -539.666181188278     Delta-E=        0.000000000002 Rises=F Damp=F
 DIIS: error= 3.55D-08 at cycle  14 NSaved=  14.
 NSaved=14 IEnMin=13 EnMin= -539.666181188280     IErMin=14 ErrMin= 3.55D-08
 ErrMax= 3.55D-08  0.00D+00 EMaxC= 1.00D-01 BMatC= 3.04D-13 BMatP= 1.35D-12
 IDIUse=1 WtCom= 1.00D+00 WtEn= 0.00D+00
 Coeff-Com: -0.242D-06 0.809D-06 0.257D-05 0.578D-06-0.222D-05-0.219D-04
 Coeff-Com: -0.292D-03-0.797D-03-0.339D-02-0.795D-02-0.881D-03 0.846D-01
 Coeff-Com:  0.363D+00 0.565D+00
 Coeff:     -0.242D-06 0.809D-06 0.257D-05 0.578D-06-0.222D-05-0.219D-04
 Coeff:     -0.292D-03-0.797D-03-0.339D-02-0.795D-02-0.881D-03 0.846D-01
 Coeff:      0.363D+00 0.565D+00
 Gap=     0.125 Goal=   None    Shift=    0.000
 RMSDP=8.92D-09 MaxDP=5.58D-07 DE= 1.59D-12 OVMax= 3.60D-07

 SCF Done:  E(RB3LYP) =  -539.666181188     A.U. after   14 cycles
            NFock= 14  Conv=0.89D-08     -V/T= 2.0048
 KE= 5.370910440971D+02 PE=-2.784421612538D+03 EE= 9.411995463979D+02
 Leave Link  502 at Fri Jul 19 12:02:06 2024, MaxMem=   104857600 cpu:             668.3 elap:              23.3
 (Enter /curc/sw/install/gaussian/g16_c.02/g16/l801.exe)
 DoSCS=F DFT=T ScalE2(SS,OS)=  1.000000  1.000000
 ExpMin= 4.38D-02 ExpMax= 4.56D+03 ExpMxC= 6.82D+02 IAcc=3 IRadAn=         5 AccDes= 0.00D+00
 HarFok:  IExCor=  205 AccDes= 0.00D+00 IRadAn=         5 IDoV=-2 UseB2=F ITyADJ=14
 ICtDFT= 12500011 ScaDFX=  1.000000  1.000000  1.000000  1.000000
 Largest valence mixing into a core orbital is  4.80D-05
 Largest core mixing into a valence orbital is  1.47D-05
 Range of M.O.s used for correlation:    15   434
 NBasis=   438 NAE=    47 NBE=    47 NFC=    14 NFV=     0
 NROrb=    420 NOA=    33 NOB=    33 NVA=   387 NVB=   387

 **** Warning!!: The largest alpha MO coefficient is  0.21741578D+03

 Leave Link  801 at Fri Jul 19 12:02:08 2024, MaxMem=   104857600 cpu:               1.4 elap:               0.4
 (Enter /curc/sw/install/gaussian/g16_c.02/g16/l914.exe)
 RHF ground state
 Two-electron integrals replicated using symmetry.
 MDV=   104857600 DFT=T DoStab=F Mixed=T DoRPA=T DoScal=F NonHer=T
 Making orbital integer symmetry assigments:
 Orbital symmetries:
       Occupied  (A) (A) (A) (A) (A) (A) (A) (A) (A) (A) (A) (A)
                 (A) (A) (A) (A) (A) (A) (A) (A) (A) (A) (A) (A)
                 (A) (A) (A) (A) (A) (A) (A) (A) (A) (A) (A) (A)
                 (A) (A) (A) (A) (A) (A) (A) (A) (A) (A) (A)
       Virtual   (A) (A) (A) (A) (A) (A) (A) (A) (A) (A) (A) (A)
                 (A) (A) (A) (A) (A) (A) (A) (A) (A) (A) (A) (A)
                 (A) (A) (A) (A) (A) (A) (A) (A) (A) (A) (A) (A)
                 (A) (A) (A) (A) (A) (A) (A) (A) (A) (A) (A) (A)
                 (A) (A) (A) (A) (A) (A) (A) (A) (A) (A) (A) (A)
                 (A) (A) (A) (A) (A) (A) (A) (A) (A) (A) (A) (A)
                 (A) (A) (A) (A) (A) (A) (A) (A) (A) (A) (A) (A)
                 (A) (A) (A) (A) (A) (A) (A) (A) (A) (A) (A) (A)
                 (A) (A) (A) (A) (A) (A) (A) (A) (A) (A) (A) (A)
                 (A) (A) (A) (A) (A) (A) (A) (A) (A) (A) (A) (A)
                 (A) (A) (A) (A) (A) (A) (A) (A) (A) (A) (A) (A)
                 (A) (A) (A) (A) (A) (A) (A) (A) (A) (A) (A) (A)
                 (A) (A) (A) (A) (A) (A) (A) (A) (A) (A) (A) (A)
                 (A) (A) (A) (A) (A) (A) (A) (A) (A) (A) (A) (A)
                 (A) (A) (A) (A) (A) (A) (A) (A) (A) (A) (A) (A)
                 (A) (A) (A) (A) (A) (A) (A) (A) (A) (A) (A) (A)
                 (A) (A) (A) (A) (A) (A) (A) (A) (A) (A) (A) (A)
                 (A) (A) (A) (A) (A) (A) (A) (A) (A) (A) (A) (A)
                 (A) (A) (A) (A) (A) (A) (A) (A) (A) (A) (A) (A)
                 (A) (A) (A) (A) (A) (A) (A) (A) (A) (A) (A) (A)
                 (A) (A) (A) (A) (A) (A) (A) (A) (A) (A) (A) (A)
                 (A) (A) (A) (A) (A) (A) (A) (A) (A) (A) (A) (A)
                 (A) (A) (A) (A) (A) (A) (A) (A) (A) (A) (A) (A)
                 (A) (A) (A) (A) (A) (A) (A) (A) (A) (A) (A) (A)
                 (A) (A) (A) (A) (A) (A) (A) (A) (A) (A) (A) (A)
                 (A) (A) (A) (A) (A) (A) (A) (A) (A) (A) (A) (A)
                 (A) (A) (A) (A) (A) (A) (A) (A) (A) (A) (A) (A)
                 (A) (A) (A) (A) (A) (A) (A) (A) (A) (A) (A) (A)
                 (A) (A) (A) (A) (A) (A) (A) (A) (A) (A) (A) (A)
                 (A) (A) (A) (A) (A) (A) (A) (A) (A) (A) (A) (A)
                 (A) (A) (A) (A) (A) (A) (A) (A) (A) (A) (A) (A)
                 (A) (A) (A) (A) (A) (A) (A) (A) (A) (A) (A) (A)
                 (A) (A) (A)
    80 initial guesses have been made.
 Convergence on wavefunction:    0.001000000000000
 Davidson Disk Diagonalization:  ConvIn= 1.00D-03 SkipCon=T Conv= 1.00D-03.
 Max sub-space:  2000 roots to seek:    80 dimension of matrix:        25542
 Iteration     1 Dimension    80 NMult     0 NNew     80
 CISAX will form     4 AO SS matrices at one time.
 NMat=     4 NSing=     4 JSym2X= 0.
 FoFJK:  IHMeth= 1 ICntrl=       0 DoSepK=F KAlg= 0 I1Cent=           0 FoldK=F
 IRaf= 880000000 NMat=       8 IRICut=       1 DoRegI=T DoRafI=F ISym2E= 0 IDoP0=0 IntGTp=1.
 FoFCou: FMM=F IPFlag=           0 FMFlag=      100000 FMFlg1=           0
         NFxFlg=           0 DoJE=F BraDBF=F KetDBF=F FulRan=T
         wScrn=  0.000000 ICntrl=         0 IOpCl=  0 I1Cent=           0 NGrid=           0
         NMat0=    8 NMatS0=      4 NMatT0=    0 NMatD0=    8 NMtDS0=    0 NMtDT0=    0
 Symmetry not used in FoFCou.
 NMat=     4 NSing=     4 JSym2X= 0.
 NMat=     4 NSing=     4 JSym2X= 0.
 NMat=     4 NSing=     4 JSym2X= 0.
 NMat=     4 NSing=     4 JSym2X= 0.
 NMat=     4 NSing=     4 JSym2X= 0.
 NMat=     4 NSing=     4 JSym2X= 0.
 NMat=     4 NSing=     4 JSym2X= 0.
 NMat=     4 NSing=     4 JSym2X= 0.
 NMat=     4 NSing=     4 JSym2X= 0.
 NMat=     4 NSing=     4 JSym2X= 0.
 NMat=     4 NSing=     4 JSym2X= 0.
 NMat=     4 NSing=     4 JSym2X= 0.
 NMat=     4 NSing=     4 JSym2X= 0.
 NMat=     4 NSing=     4 JSym2X= 0.
 NMat=     4 NSing=     4 JSym2X= 0.
 NMat=     4 NSing=     4 JSym2X= 0.
 NMat=     4 NSing=     4 JSym2X= 0.
 NMat=     4 NSing=     4 JSym2X= 0.
 NMat=     4 NSing=     4 JSym2X= 0.
 New state      2 was old state      3
 New state      3 was old state      4
 New state      4 was old state      6
 New state      5 was old state      7
 New state      6 was old state      9
 New state      7 was old state      8
 New state      8 was old state      5
 New state      9 was old state     15
 New state     10 was old state     12
 New state     12 was old state      2
 New state     13 was old state     14
 New state     14 was old state     13
 New state     15 was old state     21
 New state     16 was old state     26
 New state     17 was old state     20
 New state     20 was old state     22
 Excitation Energies [eV] at current iteration:
 Root      1 :     3.457217468846220
 Root      2 :     3.802078799849156
 Root      3 :     4.432051452744473
 Root      4 :     4.903228414103605
 Root      5 :     4.952716266567461
 Root      6 :     5.107996366678227
 Root      7 :     5.133748958154423
 Root      8 :     5.182788004601873
 Root      9 :     5.515451243263875
 Root     10 :     5.632130605385353
 Root     11 :     5.654546793989444
 Root     12 :     5.699879114905276
 Root     13 :     5.845523191689527
 Root     14 :     5.954283405111696
 Root     15 :     6.024813361762329
 Root     16 :     6.068501017352865
 Root     17 :     6.161614977795923
 Root     18 :     6.182019912644802
 Root     19 :     6.201622921916932
 Root     20 :     6.222476913532436
 Root     21 :     6.254370783465355
 Root     22 :     6.271253946154956
 Root     23 :     6.344466707132974
 Root     24 :     6.390822714453638
 Root     25 :     6.399351597555371
 Root     26 :     6.441827934318283
 Root     27 :     6.548903948395354
 Root     28 :     6.593357344428096
 Root     29 :     6.651878022102317
 Root     30 :     6.715589625734341
 Root     31 :     6.784448798748947
 Root     32 :     6.809248104046793
 Root     33 :     6.815868140929275
 Root     34 :     6.835380698853728
 Root     35 :     6.861840875733312
 Root     36 :     6.864819657412238
 Root     37 :     6.899512570593589
 Root     38 :     6.926317002456617
 Root     39 :     7.150205440600682
 Root     40 :     7.184934205487045
 Root     41 :     7.286522831843442
 Root     42 :     7.297291234610299
 Root     43 :     7.362438548358046
 Root     44 :     7.368606578348468
 Root     45 :     7.401076693630547
 Root     46 :     7.410616559499235
 Root     47 :     7.448141493228588
 Root     48 :     7.459255714044487
 Root     49 :     7.531979647870661
 Root     50 :     7.550548867695547
 Root     51 :     7.582406907660491
 Root     52 :     7.614770455570020
 Root     53 :     7.698563410811261
 Root     54 :     7.711460354292429
 Root     55 :     7.749173771584965
 Root     56 :     7.773693554583766
 Root     57 :     7.791222070099445
 Root     58 :     7.802853716843467
 Root     59 :     7.806696066785750
 Root     60 :     7.828569731351221
 Root     61 :     7.858038710726029
 Root     62 :     7.895633031035168
 Root     63 :     7.901629094646488
 Root     64 :     7.908276092944561
 Root     65 :     7.928973621732273
 Root     66 :     7.939046177286753
 Root     67 :     7.980099741729384
 Root     68 :     7.988166759659896
 Root     69 :     8.038075769181283
 Root     70 :     8.062198241033130
 Root     71 :     8.073233540130431
 Root     72 :     8.081455694949232
 Root     73 :     8.111260428256688
 Root     74 :     8.132216981982515
 Root     75 :     8.146096834262515
 Root     76 :     8.159629689330291
 Root     77 :     8.541700815318382
 Root     78 :     8.847840752026878
 Root     79 :     8.882879725305703
 Root     80 :     9.610703992659975
 Iteration     2 Dimension   120 NMult    80 NNew     40
 CISAX will form     4 AO SS matrices at one time.
 NMat=     4 NSing=     4 JSym2X= 0.
 NMat=     4 NSing=     4 JSym2X= 0.
 NMat=     4 NSing=     4 JSym2X= 0.
 NMat=     4 NSing=     4 JSym2X= 0.
 NMat=     4 NSing=     4 JSym2X= 0.
 NMat=     4 NSing=     4 JSym2X= 0.
 NMat=     4 NSing=     4 JSym2X= 0.
 NMat=     4 NSing=     4 JSym2X= 0.
 NMat=     4 NSing=     4 JSym2X= 0.
 NMat=     4 NSing=     4 JSym2X= 0.
 Root      1 not converged, maximum delta is    0.045220342952225
 Root      2 not converged, maximum delta is    0.017384139777030
 Root      3 not converged, maximum delta is    0.068572479436312
 New state      4 was old state      8
 Root      4 not converged, maximum delta is    0.224413324426056
 New state      5 was old state      4
 Root      5 not converged, maximum delta is    0.212684317563650
 New state      6 was old state      5
 Root      6 not converged, maximum delta is    0.185291315848692
 New state      7 was old state     12
 Root      7 not converged, maximum delta is    0.346911701166315
 New state      8 was old state      6
 Root      8 not converged, maximum delta is    0.069672158226805
 New state      9 was old state      7
 Root      9 not converged, maximum delta is    0.215438140293777
 New state     10 was old state      9
 Root     10 not converged, maximum delta is    0.024057371356255
 New state     11 was old state     10
 Root     11 not converged, maximum delta is    0.090536727551012
 New state     12 was old state     11
 Root     12 not converged, maximum delta is    0.067749476880707
 New state     13 was old state     14
 Root     13 not converged, maximum delta is    0.207801418734675
 New state     14 was old state     13
 Root     14 not converged, maximum delta is    0.194813794953248
 New state     15 was old state     22
 Root     15 not converged, maximum delta is    0.215578738726865
 New state     16 was old state     15
 Root     16 not converged, maximum delta is    0.119465528497306
 New state     17 was old state     16
 Root     17 not converged, maximum delta is    0.079823980032198
 New state     18 was old state     17
 Root     18 not converged, maximum delta is    0.282959917529486
 New state     19 was old state     23
 Root     19 not converged, maximum delta is    0.237078887669657
 New state     20 was old state     18
 Root     20 not converged, maximum delta is    0.040489788058642
 Excitation Energies [eV] at current iteration:
 Root      1 :     3.096640155526857   Change is   -0.360577313319363
 Root      2 :     3.756988627132194   Change is   -0.045090172716962
 Root      3 :     4.409574088846142   Change is   -0.022477363898330
 Root      4 :     4.790967567544878   Change is   -0.391820437056995
 Root      5 :     4.863452522816511   Change is   -0.039775891287094
 Root      6 :     4.932650431411513   Change is   -0.020065835155947
 Root      7 :     5.075201265116554   Change is   -0.624677849788722
 Root      8 :     5.096922814413886   Change is   -0.011073552264342
 Root      9 :     5.142706606451489   Change is    0.008957648297066
 Root     10 :     5.452899220525185   Change is   -0.062552022738691
 Root     11 :     5.624238618601468   Change is   -0.007891986783885
 Root     12 :     5.646362244391588   Change is   -0.008184549597856
 Root     13 :     5.710097589988118   Change is   -0.244185815123577
 Root     14 :     5.793303689430106   Change is   -0.052219502259421
 Root     15 :     5.841322693687924   Change is   -0.429931252467032
 Root     16 :     5.996800248533565   Change is   -0.028013113228765
 Root     17 :     6.025415104815048   Change is   -0.043085912537817
 Root     18 :     6.098338536756586   Change is   -0.063276441039338
 Root     19 :     6.116925707793734   Change is   -0.227540999339239
 Root     20 :     6.166886355186259   Change is   -0.015133557458543
 Iteration     3 Dimension   160 NMult   120 NNew     40
 CISAX will form     4 AO SS matrices at one time.
 NMat=     4 NSing=     4 JSym2X= 0.
 NMat=     4 NSing=     4 JSym2X= 0.
 NMat=     4 NSing=     4 JSym2X= 0.
 NMat=     4 NSing=     4 JSym2X= 0.
 NMat=     4 NSing=     4 JSym2X= 0.
 NMat=     4 NSing=     4 JSym2X= 0.
 NMat=     4 NSing=     4 JSym2X= 0.
 NMat=     4 NSing=     4 JSym2X= 0.
 NMat=     4 NSing=     4 JSym2X= 0.
 NMat=     4 NSing=     4 JSym2X= 0.
 Root      1 not converged, maximum delta is    0.009738443121980
 Root      2 not converged, maximum delta is    0.001277564935360
 Root      3 not converged, maximum delta is    0.013526131900450
 Root      4 not converged, maximum delta is    0.024011295263850
 Root      5 not converged, maximum delta is    0.021863079531561
 Root      6 not converged, maximum delta is    0.004095851271393
 Root      7 not converged, maximum delta is    0.112420700073051
 Root      8 not converged, maximum delta is    0.036556149238511
 Root      9 not converged, maximum delta is    0.066754593317555
 Root     10 not converged, maximum delta is    0.006605971141693
 Root     11 not converged, maximum delta is    0.007019862851009
 Root     12 not converged, maximum delta is    0.017576680392389
 Root     13 not converged, maximum delta is    0.163327072114259
 New state     14 was old state     15
 Root     14 not converged, maximum delta is    0.221295995192715
 New state     15 was old state     14
 Root     15 not converged, maximum delta is    0.215604160997510
 Root     16 not converged, maximum delta is    0.073942733880358
 Root     17 not converged, maximum delta is    0.078536385153308
 New state     18 was old state     19
 Root     18 not converged, maximum delta is    0.293678340578606
 New state     19 was old state     18
 Root     19 not converged, maximum delta is    0.241881685071164
 Root     20 not converged, maximum delta is    0.042879937797318
 Excitation Energies [eV] at current iteration:
 Root      1 :     3.078740968953448   Change is   -0.017899186573410
 Root      2 :     3.755821670415187   Change is   -0.001166956717006
 Root      3 :     4.406989223073662   Change is   -0.002584865772481
 Root      4 :     4.761070657880450   Change is   -0.029896909664428
 Root      5 :     4.861462079960996   Change is   -0.001990442855515
 Root      6 :     4.932305606443673   Change is   -0.000344824967840
 Root      7 :     5.041055581978377   Change is   -0.034145683138177
 Root      8 :     5.096549668909456   Change is   -0.000373145504430
 Root      9 :     5.137529526525042   Change is   -0.005177079926448
 Root     10 :     5.451526898297901   Change is   -0.001372322227284
 Root     11 :     5.623924024659718   Change is   -0.000314593941750
 Root     12 :     5.646196947007578   Change is   -0.000165297384010
 Root     13 :     5.676607272715737   Change is   -0.033490317272382
 Root     14 :     5.758529139822736   Change is   -0.082793553865188
 Root     15 :     5.793194199450418   Change is   -0.000109489979689
 Root     16 :     5.988803447629838   Change is   -0.007996800903727
 Root     17 :     6.021106201221349   Change is   -0.004308903593699
 Root     18 :     6.062662689332782   Change is   -0.054263018460953
 Root     19 :     6.095189168062167   Change is   -0.003149368694418
 Root     20 :     6.166143622073939   Change is   -0.000742733112320
 Iteration     4 Dimension   200 NMult   160 NNew     40
 CISAX will form     4 AO SS matrices at one time.
 NMat=     4 NSing=     4 JSym2X= 0.
 NMat=     4 NSing=     4 JSym2X= 0.
 NMat=     4 NSing=     4 JSym2X= 0.
 NMat=     4 NSing=     4 JSym2X= 0.
 NMat=     4 NSing=     4 JSym2X= 0.
 NMat=     4 NSing=     4 JSym2X= 0.
 NMat=     4 NSing=     4 JSym2X= 0.
 NMat=     4 NSing=     4 JSym2X= 0.
 NMat=     4 NSing=     4 JSym2X= 0.
 NMat=     4 NSing=     4 JSym2X= 0.
 Root      1 has converged.
 Root      2 has converged.
 Root      3 has converged.
 Root      4 not converged, maximum delta is    0.002455487984995
 Root      5 not converged, maximum delta is    0.001085055067257
 Root      6 has converged.
 Root      7 not converged, maximum delta is    0.002938506235754
 Root      8 has converged.
 Root      9 not converged, maximum delta is    0.001775846862982
 Root     10 has converged.
 Root     11 has converged.
 Root     12 not converged, maximum delta is    0.003017078431576
 Root     13 not converged, maximum delta is    0.011497408842124
 Root     14 not converged, maximum delta is    0.012407157021020
 Root     15 not converged, maximum delta is    0.010341044514606
 Root     16 not converged, maximum delta is    0.006945659185304
 Root     17 not converged, maximum delta is    0.011075489616774
 Root     18 not converged, maximum delta is    0.011702097218577
 Root     19 not converged, maximum delta is    0.008041576854878
 Root     20 not converged, maximum delta is    0.031282270818111
 Excitation Energies [eV] at current iteration:
 Root      1 :     3.078255103761455   Change is   -0.000485865191992
 Root      2 :     3.755776721243675   Change is   -0.000044949171512
 Root      3 :     4.406824784346909   Change is   -0.000164438726752
 Root      4 :     4.759024756169659   Change is   -0.002045901710790
 Root      5 :     4.861340472825845   Change is   -0.000121607135150
 Root      6 :     4.932282896369881   Change is   -0.000022710073792
 Root      7 :     5.039707255151166   Change is   -0.001348326827212
 Root      8 :     5.096537764520264   Change is   -0.000011904389192
 Root      9 :     5.137395469379753   Change is   -0.000134057145290
 Root     10 :     5.451422828339147   Change is   -0.000104069958754
 Root     11 :     5.623897042609253   Change is   -0.000026982050465
 Root     12 :     5.646177693442119   Change is   -0.000019253565459
 Root     13 :     5.673914043304765   Change is   -0.002693229410971
 Root     14 :     5.755756773528701   Change is   -0.002772366294034
 Root     15 :     5.792390131323017   Change is   -0.000804068127399
 Root     16 :     5.988128882450754   Change is   -0.000674565179084
 Root     17 :     6.020662294237180   Change is   -0.000443906984169
 Root     18 :     6.059343374966401   Change is   -0.003319314366380
 Root     19 :     6.094595128267573   Change is   -0.000594039794594
 Root     20 :     6.166013721705928   Change is   -0.000129900368010
 Iteration     5 Dimension   226 NMult   200 NNew     26
 CISAX will form     4 AO SS matrices at one time.
 NMat=     4 NSing=     4 JSym2X= 0.
 NMat=     4 NSing=     4 JSym2X= 0.
 NMat=     4 NSing=     4 JSym2X= 0.
 NMat=     4 NSing=     4 JSym2X= 0.
 NMat=     4 NSing=     4 JSym2X= 0.
 NMat=     4 NSing=     4 JSym2X= 0.
 NMat=     2 NSing=     2 JSym2X= 0.
 Root      1 has converged.
 Root      2 has converged.
 Root      3 has converged.
 Root      4 has converged.
 Root      5 has converged.
 Root      6 has converged.
 Root      7 has converged.
 Root      8 has converged.
 Root      9 has converged.
 Root     10 has converged.
 Root     11 has converged.
 Root     12 has converged.
 Root     13 has converged.
 Root     14 has converged.
 Root     15 has converged.
 Root     16 has converged.
 Root     17 has converged.
 Root     18 not converged, maximum delta is    0.001176437874606
 Root     19 has converged.
 Root     20 not converged, maximum delta is    0.041616771393332
 Excitation Energies [eV] at current iteration:
 Root      1 :     3.078253415062009   Change is   -0.000001688699446
 Root      2 :     3.755776351765621   Change is   -0.000000369478055
 Root      3 :     4.406819720817722   Change is   -0.000005063529188
 Root      4 :     4.758952235033218   Change is   -0.000072521136442
 Root      5 :     4.861335079556377   Change is   -0.000005393269468
 Root      6 :     4.932282176248328   Change is   -0.000000720121554
 Root      7 :     5.039624881598752   Change is   -0.000082373552413
 Root      8 :     5.096537384393351   Change is   -0.000000380126912
 Root      9 :     5.137386823042061   Change is   -0.000008646337691
 Root     10 :     5.451421975078419   Change is   -0.000000853260728
 Root     11 :     5.623896181990196   Change is   -0.000000860619057
 Root     12 :     5.646176417732618   Change is   -0.000001275709501
 Root     13 :     5.673749198496698   Change is   -0.000164844808067
 Root     14 :     5.755567538302694   Change is   -0.000189235226007
 Root     15 :     5.792342192221429   Change is   -0.000047939101589
 Root     16 :     5.988083140357507   Change is   -0.000045742093247
 Root     17 :     6.020624109055969   Change is   -0.000038185181210
 Root     18 :     6.059137710346596   Change is   -0.000205664619805
 Root     19 :     6.094549475651676   Change is   -0.000045652615897
 Root     20 :     6.165937272201237   Change is   -0.000076449504692
 Iteration     6 Dimension   230 NMult   226 NNew      4
 CISAX will form     4 AO SS matrices at one time.
 NMat=     4 NSing=     4 JSym2X= 0.
 Root      1 has converged.
 Root      2 has converged.
 Root      3 has converged.
 Root      4 has converged.
 Root      5 has converged.
 Root      6 has converged.
 Root      7 has converged.
 Root      8 has converged.
 Root      9 has converged.
 Root     10 has converged.
 Root     11 has converged.
 Root     12 has converged.
 Root     13 has converged.
 Root     14 has converged.
 Root     15 has converged.
 Root     16 has converged.
 Root     17 has converged.
 Root     18 has converged.
 Root     19 has converged.
 Root     20 not converged, maximum delta is    0.010193769831894
 Excitation Energies [eV] at current iteration:
 Root      1 :     3.078253397749325   Change is   -0.000000017312685
 Root      2 :     3.755776348427263   Change is   -0.000000003338358
 Root      3 :     4.406819714804723   Change is   -0.000000006012998
 Root      4 :     4.758952233057696   Change is   -0.000000001975523
 Root      5 :     4.861335076931448   Change is   -0.000000002624929
 Root      6 :     4.932282174995034   Change is   -0.000000001253293
 Root      7 :     5.039624870953245   Change is   -0.000000010645507
 Root      8 :     5.096537378026844   Change is   -0.000000006366508
 Root      9 :     5.137386821443208   Change is   -0.000000001598853
 Root     10 :     5.451421931103726   Change is   -0.000000043974692
 Root     11 :     5.623896175873941   Change is   -0.000000006116256
 Root     12 :     5.646176414955747   Change is   -0.000000002776871
 Root     13 :     5.673748613993099   Change is   -0.000000584503599
 Root     14 :     5.755567102456955   Change is   -0.000000435845739
 Root     15 :     5.792340683223538   Change is   -0.000001508997891
 Root     16 :     5.988080231211071   Change is   -0.000002909146436
 Root     17 :     6.020622859826387   Change is   -0.000001249229582
 Root     18 :     6.059119440677801   Change is   -0.000018269668795
 Root     19 :     6.094548971156987   Change is   -0.000000504494689
 Root     20 :     6.165922675534787   Change is   -0.000014596666449
 Iteration     7 Dimension   232 NMult   230 NNew      2
 CISAX will form     2 AO SS matrices at one time.
 NMat=     2 NSing=     2 JSym2X= 0.
 Root      1 has converged.
 Root      2 has converged.
 Root      3 has converged.
 Root      4 has converged.
 Root      5 has converged.
 Root      6 has converged.
 Root      7 has converged.
 Root      8 has converged.
 Root      9 has converged.
 Root     10 has converged.
 Root     11 has converged.
 Root     12 has converged.
 Root     13 has converged.
 Root     14 has converged.
 Root     15 has converged.
 Root     16 has converged.
 Root     17 has converged.
 Root     18 has converged.
 Root     19 has converged.
 Root     20 not converged, maximum delta is    0.001311271072303
 Excitation Energies [eV] at current iteration:
 Root      1 :     3.078253389120863   Change is   -0.000000008628461
 Root      2 :     3.755776348097363   Change is   -0.000000000329900
 Root      3 :     4.406819714512798   Change is   -0.000000000291926
 Root      4 :     4.758952232355012   Change is   -0.000000000702683
 Root      5 :     4.861335076647911   Change is   -0.000000000283538
 Root      6 :     4.932282174510817   Change is   -0.000000000484216
 Root      7 :     5.039624866908693   Change is   -0.000000004044552
 Root      8 :     5.096537376619528   Change is   -0.000000001407316
 Root      9 :     5.137386820695683   Change is   -0.000000000747525
 Root     10 :     5.451421919955299   Change is   -0.000000011148427
 Root     11 :     5.623896171061467   Change is   -0.000000004812474
 Root     12 :     5.646176414858255   Change is   -0.000000000097492
 Root     13 :     5.673748605196983   Change is   -0.000000008796116
 Root     14 :     5.755567082923161   Change is   -0.000000019533795
 Root     15 :     5.792340682536809   Change is   -0.000000000686730
 Root     16 :     5.988080229265889   Change is   -0.000000001945181
 Root     17 :     6.020622845119373   Change is   -0.000000014707014
 Root     18 :     6.059119430322681   Change is   -0.000000010355121
 Root     19 :     6.094548969639630   Change is   -0.000000001517357
 Root     20 :     6.165921100665269   Change is   -0.000001574869518
 Convergence on energies, max DE= 1.57D-06.
 Convergence on expansion vectors.
 ***********************************************************************
 Excited states from <AA,BB:AA,BB> singles matrix:
 ***********************************************************************
 
 1PDM for each excited state written to RWF  633
 Ground to excited state transition densities written to RWF  633
 Ground to excited state transition electric dipole moments (Au):
       state          X           Y           Z        Dip. S.      Osc.
         1        -0.0188      0.8301     -0.0310      0.6903      0.0521
         2         0.1303     -0.0000     -0.0006      0.0170      0.0016
         3         0.0346     -0.0027     -0.0051      0.0012      0.0001
         4        -0.2479     -0.0030      0.0175      0.0618      0.0072
         5         0.0222      0.0296      0.0533      0.0042      0.0005
         6         0.0119     -0.0137     -0.0006      0.0003      0.0000
         7         3.7334      0.0105     -0.0021     13.9384      1.7210
         8        -0.1880      0.0104     -0.0962      0.0447      0.0056
         9         1.1191      0.0110     -0.0084      1.2527      0.1577
        10        -0.0197     -0.0495      0.0078      0.0029      0.0004
        11        -0.0946     -0.0487      0.0401      0.0129      0.0018
        12        -0.1204      0.0215      0.0034      0.0150      0.0021
        13         0.0441     -0.6309     -0.0485      0.4023      0.0559
        14         0.0049     -0.4767      0.0408      0.2289      0.0323
        15         0.0006     -0.1705     -0.0447      0.0311      0.0044
        16        -0.0052      0.0146      0.0369      0.0016      0.0002
        17         0.0019      0.0415     -0.0249      0.0024      0.0003
        18        -0.0407     -0.0635     -0.0037      0.0057      0.0008
        19         0.2352      0.0055     -0.0203      0.0557      0.0083
        20        -0.0258     -0.0205     -0.3510      0.1243      0.0188
 Ground to excited state transition velocity dipole moments (Au):
       state          X           Y           Z        Dip. S.      Osc.
         1         0.0021     -0.0975      0.0035      0.0095      0.0561
         2        -0.0176     -0.0001      0.0001      0.0003      0.0015
         3        -0.0052      0.0004      0.0008      0.0000      0.0001
         4         0.0434      0.0005     -0.0032      0.0019      0.0072
         5        -0.0039     -0.0053     -0.0093      0.0001      0.0005
         6        -0.0022      0.0021      0.0001      0.0000      0.0000
         7        -0.6932     -0.0019      0.0003      0.4806      1.7299
         8         0.0353     -0.0007      0.0170      0.0015      0.0055
         9        -0.2111     -0.0021      0.0016      0.0446      0.1573
        10         0.0039      0.0102     -0.0016      0.0001      0.0004
        11         0.0194      0.0107     -0.0079      0.0006      0.0018
        12         0.0251     -0.0047     -0.0007      0.0007      0.0021
        13        -0.0092      0.1328      0.0102      0.0178      0.0570
        14        -0.0010      0.1021     -0.0083      0.0105      0.0331
        15        -0.0001      0.0365      0.0095      0.0014      0.0044
        16         0.0011     -0.0045     -0.0076      0.0001      0.0002
        17        -0.0004     -0.0097      0.0053      0.0001      0.0004
        18         0.0090      0.0141      0.0007      0.0003      0.0008
        19        -0.0528     -0.0012      0.0045      0.0028      0.0084
        20         0.0059      0.0049      0.0786      0.0062      0.0183
 Ground to excited state transition magnetic dipole moments (Au):
       state          X           Y           Z
         1         0.2348      0.0333     -0.0102
         2         0.0080      0.0171     -0.0729
         3        -0.0062     -0.0112     -0.3020
         4        -0.0239      0.0024     -1.5480
         5         0.2131      0.0311     -0.1532
         6         0.1220     -0.0132     -0.0270
         7        -0.0120      0.4658     -0.0919
         8        -0.0006     -0.0206     -0.0252
         9         0.0009      0.1192      0.1530
        10         0.0251     -0.0123     -0.0069
        11        -0.2578      0.0577      0.0081
        12         0.0373      0.5424      0.0092
        13        -0.0847      0.0065      0.0015
        14         0.0333     -0.0259     -0.0068
        15         0.0066     -0.0232     -0.0059
        16         0.1487      0.0066     -0.0104
        17         0.0616      0.0032     -0.0057
        18         0.0676     -0.0368     -0.0577
        19         0.0129      0.1948      0.2138
        20         0.0017      0.0005     -0.0239
 Ground to excited state transition velocity quadrupole moments (Au):
       state          XX          YY          ZZ          XY          XZ          YZ
         1         0.0474     -0.0152     -0.0073      0.0001     -0.0042      0.0671
         2        -0.0034     -0.0006      0.0010     -0.0093     -0.0148      0.0045
         3        -0.0003     -0.0006     -0.0008      0.0510     -0.0006     -0.0005
         4         0.0280     -0.0101     -0.0016     -0.7191      0.0027     -0.0023
         5        -0.0950      0.0298      0.0237     -0.0701     -0.0151     -0.0133
         6         0.0445     -0.0462      0.0297     -0.0114      0.0030      0.1841
         7        -0.0199      0.0108     -0.0042     -0.0103     -0.2742     -0.0222
         8        -0.1040     -0.0183      0.0731     -0.0138      0.0134     -0.0134
         9         0.0037     -0.0270      0.0253     -0.0140     -0.0825     -0.0102
        10        -0.1296      0.1274      0.0067     -0.0013      0.0112      0.0144
        11        -0.0392      0.0101      0.0229      0.0046     -0.0588     -0.2106
        12        -0.0161      0.0176     -0.0050     -0.0021     -0.4880      0.0214
        13         0.0574     -0.0152      0.0070      0.0068     -0.0080      0.0530
        14        -0.1121      0.0652      0.0374      0.0063      0.0237     -0.0782
        15         0.3833     -0.1510     -0.0298     -0.0000      0.0161      0.0108
        16        -0.2304      0.1104      0.0237     -0.0008     -0.0129      0.0585
        17         0.0271      0.0300      0.0427      0.0051     -0.0064      0.0283
        18         0.0126     -0.1725      0.0691     -0.0303      0.0234      0.0336
        19         0.0460     -0.0388      0.0165      0.1342     -0.1768      0.0074
        20         0.0035      0.0007      0.0484     -0.0135     -0.0104      0.0052
 <0|del|b> * <b|rxdel|0> + <0|del|b> * <b|delr+rdel|0>
 Rotatory Strengths (R) in cgs (10**-40 erg-esu-cm/Gauss)
       state          XX          YY          ZZ    R(velocity)    E-M Angle
         1       -11.5414      1.8900     -7.7777     -5.8097       96.91
         2        -0.0243     -0.5767     -0.1566     -0.2525       96.41
         3        -0.4409     -0.5305      0.0543     -0.3057       97.51
         4        14.5585      3.0239     -1.8923      5.2300       86.70
         5         3.6388      0.0009     -1.9039      0.5786       81.64
         6        -0.0760     -1.2938      0.2193     -0.3835      140.52
         7        -2.6849     45.2390    -14.1494      9.4683       88.71
         8        -1.2064     -1.3041      0.8622     -0.5494      110.03
         9        -0.3657      4.1699     -4.5201     -0.2386       90.27
        10        -0.3970      0.2881      0.0532     -0.0186       90.00
        11         1.9564    -15.6025     -1.5855     -5.0772      135.75
        12        -8.3446      2.5000      0.2436     -1.8670       96.78
        13         3.4121      0.4058      1.8105      1.8761       81.58
        14        -8.4625      0.2560     -0.5402     -2.9156      126.74
        15        -2.4723     -0.0965     -0.4318     -1.0002      164.83
        16        -0.0031      0.4848      0.2051      0.2289       80.68
        17        -0.1537     -0.1511      0.0269     -0.0926       90.00
        18        -1.4356      1.4137      0.1852      0.0544       90.00
        19         1.7752     -1.1270     -0.4912      0.0523       90.00
        20        -4.5098     -1.2138     -0.1074     -1.9437      170.39
 1/2[<0|r|b>*<b|rxdel|0> + (<0|rxdel|b>*<b|r|0>)*]
 Rotatory Strengths (R) in cgs (10**-40 erg-esu-cm/Gauss)
       state          XX          YY          ZZ     R(length)
         1         3.1277    -19.5719     -0.2231     -5.5558
         2        -0.7342      0.0002     -0.0334     -0.2558
         3         0.1508     -0.0211     -1.0912     -0.3205
         4        -4.1933      0.0050     19.1846      4.9988
         5        -3.3429     -0.6508      5.7752      0.5938
         6        -1.0286     -0.1279     -0.0112     -0.3893
         7        31.7394     -3.4723     -0.1393      9.3759
         8        -0.0849      0.1516     -1.7133     -0.5489
         9        -0.7032     -0.9281      0.9133     -0.2393
        10         0.3496     -0.4310      0.0381     -0.0145
        11       -17.2374      1.9881     -0.2289     -5.1594
        12         3.1778     -8.2632     -0.0219     -1.7025
        13         2.6383      2.8955      0.0500      1.8613
        14        -0.1162     -8.7153      0.1976     -2.8779
        15        -0.0029     -2.7990     -0.1857     -0.9959
        16         0.5429     -0.0684      0.2721      0.2488
        17        -0.0837     -0.0941     -0.0997     -0.0925
        18         1.9475     -1.6507     -0.1516      0.0484
        19        -2.1477     -0.7619      3.0620      0.0508
        20         0.0313      0.0070     -5.9430     -1.9682
  1/2[<0|del|b>*<b|r|0> + (<0|r|b>*<b|del|0>)*] (Au)
       state          X           Y           Z        Dip. S.   Osc.(frdel)
         1        -0.0000     -0.0809     -0.0001      0.0811      0.0540
         2        -0.0023      0.0000     -0.0000      0.0023      0.0015
         3        -0.0002     -0.0000     -0.0000      0.0002      0.0001
         4        -0.0108     -0.0000     -0.0001      0.0108      0.0072
         5        -0.0001     -0.0002     -0.0005      0.0007      0.0005
         6        -0.0000     -0.0000     -0.0000      0.0001      0.0000
         7        -2.5881     -0.0000     -0.0000      2.5881      1.7254
         8        -0.0066     -0.0000     -0.0016      0.0083      0.0055
         9        -0.2362     -0.0000     -0.0000      0.2363      0.1575
        10        -0.0001     -0.0005     -0.0000      0.0006      0.0004
        11        -0.0018     -0.0005     -0.0003      0.0027      0.0018
        12        -0.0030     -0.0001     -0.0000      0.0031      0.0021
        13        -0.0004     -0.0838     -0.0005      0.0847      0.0565
        14        -0.0000     -0.0487     -0.0003      0.0490      0.0327
        15        -0.0000     -0.0062     -0.0004      0.0066      0.0044
        16        -0.0000     -0.0001     -0.0003      0.0003      0.0002
        17        -0.0000     -0.0004     -0.0001      0.0005      0.0004
        18        -0.0004     -0.0009     -0.0000      0.0013      0.0008
        19        -0.0124     -0.0000     -0.0001      0.0125      0.0083
        20        -0.0002     -0.0001     -0.0276      0.0278      0.0186

 Excitation energies and oscillator strengths:
 
 Excited State   1:      Singlet-A      3.0783 eV  402.77 nm  f=0.0521  <S**2>=0.000
      47 -> 48         0.70069
 This state for optimization and/or second-order correction.
 Total Energy, E(TD-HF/TD-DFT) =  -539.553057458    
 Copying the excited state density for this state as the 1-particle RhoCI density.
 
 Excited State   2:      Singlet-A      3.7558 eV  330.12 nm  f=0.0016  <S**2>=0.000
      46 -> 48         0.51381
      47 -> 49        -0.48335
 
 Excited State   3:      Singlet-A      4.4068 eV  281.35 nm  f=0.0001  <S**2>=0.000
      45 -> 48         0.60154
      47 -> 50         0.36553
 
 Excited State   4:      Singlet-A      4.7590 eV  260.53 nm  f=0.0072  <S**2>=0.000
      45 -> 48        -0.35299
      47 -> 50         0.59381
 
 Excited State   5:      Singlet-A      4.8613 eV  255.04 nm  f=0.0005  <S**2>=0.000
      44 -> 48        -0.17997
      47 -> 51         0.54692
      47 -> 52        -0.40347
 
 Excited State   6:      Singlet-A      4.9323 eV  251.37 nm  f=0.0000  <S**2>=0.000
      47 -> 51         0.42695
      47 -> 52         0.54951
 
 Excited State   7:      Singlet-A      5.0396 eV  246.02 nm  f=1.7210  <S**2>=0.000
      46 -> 48         0.46140
      47 -> 49         0.49390
      47 -> 53        -0.18393
 
 Excited State   8:      Singlet-A      5.0965 eV  243.27 nm  f=0.0056  <S**2>=0.000
      47 -> 53        -0.10447
      47 -> 54         0.69523
 
 Excited State   9:      Singlet-A      5.1374 eV  241.34 nm  f=0.1577  <S**2>=0.000
      46 -> 48         0.12784
      47 -> 49         0.12998
      47 -> 53         0.66794
      47 -> 54         0.10867
 
 Excited State  10:      Singlet-A      5.4514 eV  227.43 nm  f=0.0004  <S**2>=0.000
      43 -> 48        -0.34688
      45 -> 49         0.45840
      46 -> 50         0.34447
      47 -> 57        -0.18931
 
 Excited State  11:      Singlet-A      5.6239 eV  220.46 nm  f=0.0018  <S**2>=0.000
      47 -> 55         0.34608
      47 -> 56         0.59468
 
 Excited State  12:      Singlet-A      5.6462 eV  219.59 nm  f=0.0021  <S**2>=0.000
      47 -> 55         0.60310
      47 -> 56        -0.35267
 
 Excited State  13:      Singlet-A      5.6737 eV  218.52 nm  f=0.0559  <S**2>=0.000
      44 -> 48        -0.34008
      45 -> 50        -0.16970
      46 -> 49         0.55840
 
 Excited State  14:      Singlet-A      5.7556 eV  215.42 nm  f=0.0323  <S**2>=0.000
      44 -> 48         0.54545
      46 -> 49         0.34869
      47 -> 52        -0.12935
      47 -> 61        -0.15433
 
 Excited State  15:      Singlet-A      5.7923 eV  214.05 nm  f=0.0044  <S**2>=0.000
      42 -> 48         0.11236
      43 -> 48         0.50364
      45 -> 49         0.16090
      46 -> 49         0.10811
      46 -> 50         0.38699
      47 -> 57         0.19500
 
 Excited State  16:      Singlet-A      5.9881 eV  207.05 nm  f=0.0002  <S**2>=0.000
      42 -> 48        -0.13170
      45 -> 49         0.14907
      46 -> 50        -0.10633
      47 -> 57         0.40260
      47 -> 59        -0.24686
      47 -> 60         0.45464
 
 Excited State  17:      Singlet-A      6.0206 eV  205.93 nm  f=0.0003  <S**2>=0.000
      42 -> 48         0.67501
      46 -> 50        -0.10391
      47 -> 60         0.11696
 
 Excited State  18:      Singlet-A      6.0591 eV  204.62 nm  f=0.0008  <S**2>=0.000
      45 -> 49        -0.33008
      46 -> 50         0.25260
      47 -> 57        -0.35473
      47 -> 59        -0.17974
      47 -> 60         0.38155
 
 Excited State  19:      Singlet-A      6.0945 eV  203.43 nm  f=0.0083  <S**2>=0.000
      44 -> 49        -0.19996
      46 -> 51         0.51957
      46 -> 52        -0.40791
 
 Excited State  20:      Singlet-A      6.1659 eV  201.08 nm  f=0.0188  <S**2>=0.000
      41 -> 48        -0.13748
      47 -> 58         0.67451
 SavETr:  write IOETrn=   770 NScale= 10 NData=  16 NLR=1 NState=   20 LETran=     370.
 Leave Link  914 at Fri Jul 19 12:12:11 2024, MaxMem=   104857600 cpu:           18907.4 elap:             601.6
 (Enter /curc/sw/install/gaussian/g16_c.02/g16/l601.exe)
 Copying SCF densities to generalized density rwf, IOpCl= 0 IROHF=0.

 **********************************************************************

            Population analysis using the SCF Density.

 **********************************************************************

 Orbital symmetries:
       Occupied  (A) (A) (A) (A) (A) (A) (A) (A) (A) (A) (A) (A)
                 (A) (A) (A) (A) (A) (A) (A) (A) (A) (A) (A) (A)
                 (A) (A) (A) (A) (A) (A) (A) (A) (A) (A) (A) (A)
                 (A) (A) (A) (A) (A) (A) (A) (A) (A) (A) (A)
       Virtual   (A) (A) (A) (A) (A) (A) (A) (A) (A) (A) (A) (A)
                 (A) (A) (A) (A) (A) (A) (A) (A) (A) (A) (A) (A)
                 (A) (A) (A) (A) (A) (A) (A) (A) (A) (A) (A) (A)
                 (A) (A) (A) (A) (A) (A) (A) (A) (A) (A) (A) (A)
                 (A) (A) (A) (A) (A) (A) (A) (A) (A) (A) (A) (A)
                 (A) (A) (A) (A) (A) (A) (A) (A) (A) (A) (A) (A)
                 (A) (A) (A) (A) (A) (A) (A) (A) (A) (A) (A) (A)
                 (A) (A) (A) (A) (A) (A) (A) (A) (A) (A) (A) (A)
                 (A) (A) (A) (A) (A) (A) (A) (A) (A) (A) (A) (A)
                 (A) (A) (A) (A) (A) (A) (A) (A) (A) (A) (A) (A)
                 (A) (A) (A) (A) (A) (A) (A) (A) (A) (A) (A) (A)
                 (A) (A) (A) (A) (A) (A) (A) (A) (A) (A) (A) (A)
                 (A) (A) (A) (A) (A) (A) (A) (A) (A) (A) (A) (A)
                 (A) (A) (A) (A) (A) (A) (A) (A) (A) (A) (A) (A)
                 (A) (A) (A) (A) (A) (A) (A) (A) (A) (A) (A) (A)
                 (A) (A) (A) (A) (A) (A) (A) (A) (A) (A) (A) (A)
                 (A) (A) (A) (A) (A) (A) (A) (A) (A) (A) (A) (A)
                 (A) (A) (A) (A) (A) (A) (A) (A) (A) (A) (A) (A)
                 (A) (A) (A) (A) (A) (A) (A) (A) (A) (A) (A) (A)
                 (A) (A) (A) (A) (A) (A) (A) (A) (A) (A) (A) (A)
                 (A) (A) (A) (A) (A) (A) (A) (A) (A) (A) (A) (A)
                 (A) (A) (A) (A) (A) (A) (A) (A) (A) (A) (A) (A)
                 (A) (A) (A) (A) (A) (A) (A) (A) (A) (A) (A) (A)
                 (A) (A) (A) (A) (A) (A) (A) (A) (A) (A) (A) (A)
                 (A) (A) (A) (A) (A) (A) (A) (A) (A) (A) (A) (A)
                 (A) (A) (A) (A) (A) (A) (A) (A) (A) (A) (A) (A)
                 (A) (A) (A) (A) (A) (A) (A) (A) (A) (A) (A) (A)
                 (A) (A) (A) (A) (A) (A) (A) (A) (A) (A) (A) (A)
                 (A) (A) (A) (A) (A) (A) (A) (A) (A) (A) (A) (A)
                 (A) (A) (A) (A) (A) (A) (A) (A) (A) (A) (A) (A)
                 (A) (A) (A) (A) (A) (A) (A) (A) (A) (A) (A) (A)
                 (A) (A) (A) (A) (A) (A) (A) (A) (A) (A) (A) (A)
                 (A) (A) (A)
 The electronic state is 1-A.
 Alpha  occ. eigenvalues --  -10.19364 -10.19288 -10.18981 -10.18952 -10.18858
 Alpha  occ. eigenvalues --  -10.18209 -10.18108 -10.18105 -10.18005 -10.18005
 Alpha  occ. eigenvalues --  -10.17958 -10.17945 -10.17782 -10.17752  -0.88826
 Alpha  occ. eigenvalues --   -0.85795  -0.80779  -0.79172  -0.75782  -0.74550
 Alpha  occ. eigenvalues --   -0.70855  -0.65294  -0.62254  -0.60799  -0.59511
 Alpha  occ. eigenvalues --   -0.54751  -0.52818  -0.51070  -0.47241  -0.46719
 Alpha  occ. eigenvalues --   -0.46107  -0.45362  -0.42827  -0.42219  -0.41370
 Alpha  occ. eigenvalues --   -0.40876  -0.39768  -0.38641  -0.37041  -0.35238
 Alpha  occ. eigenvalues --   -0.34351  -0.33671  -0.31156  -0.30755  -0.26515
 Alpha  occ. eigenvalues --   -0.24853  -0.20277
 Alpha virt. eigenvalues --   -0.07738  -0.02757  -0.00870   0.00202   0.00432
 Alpha virt. eigenvalues --    0.00855   0.00928   0.02712   0.02737   0.04323
 Alpha virt. eigenvalues --    0.04594   0.04691   0.04793   0.05849   0.06090
 Alpha virt. eigenvalues --    0.06431   0.07038   0.07067   0.07388   0.09413
 Alpha virt. eigenvalues --    0.09825   0.10639   0.10924   0.11029   0.11905
 Alpha virt. eigenvalues --    0.12336   0.12894   0.13375   0.13487   0.13897
 Alpha virt. eigenvalues --    0.14225   0.14961   0.15683   0.16036   0.16263
 Alpha virt. eigenvalues --    0.16383   0.17449   0.18211   0.18409   0.18857
 Alpha virt. eigenvalues --    0.19086   0.19290   0.19756   0.19857   0.20233
 Alpha virt. eigenvalues --    0.20490   0.20585   0.20903   0.21193   0.21570
 Alpha virt. eigenvalues --    0.21715   0.22777   0.22941   0.23440   0.24165
 Alpha virt. eigenvalues --    0.24229   0.25585   0.26415   0.26583   0.26757
 Alpha virt. eigenvalues --    0.27146   0.27242   0.27665   0.27723   0.28046
 Alpha virt. eigenvalues --    0.28996   0.29828   0.30112   0.30928   0.31263
 Alpha virt. eigenvalues --    0.31952   0.32581   0.32967   0.33925   0.34532
 Alpha virt. eigenvalues --    0.35201   0.36874   0.38769   0.38981   0.43765
 Alpha virt. eigenvalues --    0.45262   0.46093   0.46500   0.47368   0.48660
 Alpha virt. eigenvalues --    0.49167   0.49732   0.49779   0.50526   0.51113
 Alpha virt. eigenvalues --    0.52072   0.52235   0.52388   0.52699   0.53328
 Alpha virt. eigenvalues --    0.53952   0.54124   0.54291   0.55476   0.55650
 Alpha virt. eigenvalues --    0.56150   0.57062   0.57536   0.57986   0.58749
 Alpha virt. eigenvalues --    0.58932   0.61389   0.61807   0.63798   0.64040
 Alpha virt. eigenvalues --    0.64294   0.64813   0.65227   0.65456   0.66266
[...]
 Alpha virt. eigenvalues --    3.24128   3.24874   3.25008   3.25490   3.27377
 Alpha virt. eigenvalues --    3.28097   3.28766   3.29179   3.29764   3.32498
 Alpha virt. eigenvalues --    3.33322   3.35330   3.37687   3.40300   3.41895
 Alpha virt. eigenvalues --    3.42376   3.44025   3.46232   3.47485   3.48760
 Alpha virt. eigenvalues --    3.49713   3.50422   3.52375   3.52466   3.54359
 Alpha virt. eigenvalues --    3.55907   3.58254   3.58790   3.59726   3.60200
 Alpha virt. eigenvalues --    3.60994   3.61921   3.62348   3.63404   3.64645
 Alpha virt. eigenvalues --    3.65055   3.65266   3.66534   3.67094   3.68152
 Alpha virt. eigenvalues --    3.69638   3.69955   3.71305   3.74608   3.74693
 Alpha virt. eigenvalues --    3.76121   3.76170   3.77428   3.78849   3.79389
 Alpha virt. eigenvalues --    3.80914   3.81552   3.82422   3.82624   3.84496
 Alpha virt. eigenvalues --    3.85927   3.89612   3.91148   3.92997   3.94662
 Alpha virt. eigenvalues --    3.95018   3.96433   3.98365   3.99354   3.99748
 Alpha virt. eigenvalues --    4.01874   4.05454   4.06058   4.10535   4.14245
 Alpha virt. eigenvalues --    4.22363   4.27593   4.28245   4.29369   4.31864
 Alpha virt. eigenvalues --    4.35235   4.56889   4.58382   4.59676   4.65652
 Alpha virt. eigenvalues --    4.73789   4.74715   4.80442   4.87129   5.15021
 Alpha virt. eigenvalues --    5.22939   5.27226   5.32307  23.60850  23.77380
 Alpha virt. eigenvalues --   23.95397  23.96118  23.98464  24.01392  24.03768
 Alpha virt. eigenvalues --   24.07072  24.07292  24.13438  24.20771  24.22221
 Alpha virt. eigenvalues --   24.24790  24.37138
          Condensed to atoms (all electrons):
               1          2          3          4          5          6
     1  C    5.886098   0.635308   0.408020  -0.448394   0.325845  -0.451038
     2  C    0.635308   6.221154   0.034747   0.047156  -0.369533  -0.086450
     3  C    0.408020   0.034747   6.020697  -0.038417  -0.537222   0.045751
     4  C   -0.448394   0.047156  -0.038417   7.741969  -0.477028  -0.439643
     5  C    0.325845  -0.369533  -0.537222  -0.477028   6.997977  -0.589276
     6  C   -0.451038  -0.086450   0.045751  -0.439643  -0.589276   8.655928
     7  C   -0.411398   0.020224   0.082282   0.063374   0.025027   0.205568
     8  C   -0.063404  -0.031787  -0.429492   0.016573   0.086678  -0.128095
     9  C   -0.025371   0.055254   0.116126  -0.139911  -0.377070   0.508472
    10  C    0.262890  -0.299189   0.149598   0.219384   0.781428  -2.221482
    11  C   -0.530350  -0.213615   0.112798   0.119593  -0.062963   0.232127
    12  C   -0.048441  -0.462424  -0.047766  -0.050338   0.109896   0.008788
    13  C   -0.004301   0.209549   0.052912   0.368539  -0.389947  -0.191659
    14  C    0.188513   0.005103  -0.293262  -1.366522   0.613550   0.156721
    15  H   -0.013252  -0.070150   0.007567   0.004861  -0.005357   0.002402
    16  H    0.005247   0.016864   0.000711  -0.005619  -0.000252  -0.000524
    17  H   -0.001922  -0.005699  -0.000428   0.020116   0.001730   0.001016
    18  H   -0.000788   0.007999   0.000197  -0.091006   0.004447   0.000876
    19  H    0.409872  -0.047343  -0.053955   0.007096   0.004271   0.006864
    20  H   -0.000602   0.000098   0.006957  -0.000042   0.001879  -0.093197
    21  H   -0.002674  -0.000419  -0.006655   0.001377   0.001951   0.027935
    22  H   -0.011316   0.003180  -0.060380   0.002887  -0.003450   0.005277
    23  H    0.005020   0.000576   0.012832  -0.000584   0.000060  -0.006939
    24  H    0.002564   0.010227   0.011021  -0.043921   0.401941  -0.059637
               7          8          9         10         11         12
     1  C   -0.411398  -0.063404  -0.025371   0.262890  -0.530350  -0.048441
     2  C    0.020224  -0.031787   0.055254  -0.299189  -0.213615  -0.462424
     3  C    0.082282  -0.429492   0.116126   0.149598   0.112798  -0.047766
     4  C    0.063374   0.016573  -0.139911   0.219384   0.119593  -0.050338
     5  C    0.025027   0.086678  -0.377070   0.781428  -0.062963   0.109896
     6  C    0.205568  -0.128095   0.508472  -2.221482   0.232127   0.008788
     7  C    5.649174   0.647414  -0.114945  -0.076107  -0.223952  -0.030417
     8  C    0.647414   5.324375   0.391523   0.085728  -0.045980   0.002171
     9  C   -0.114945   0.391523   5.731569  -0.371695   0.044822  -0.000398
    10  C   -0.076107   0.085728  -0.371695   7.656044  -0.167799  -0.017997
    11  C   -0.223952  -0.045980   0.044822  -0.167799   6.061888   0.645378
    12  C   -0.030417   0.002171  -0.000398  -0.017997   0.645378   5.346221
    13  C    0.021668   0.000947  -0.014138   0.054737  -0.205324   0.372999
    14  C   -0.047576  -0.017597   0.021177  -0.077453   0.082715   0.016797
    15  H    0.000132  -0.000271   0.000158  -0.000221   0.412473  -0.029746
    16  H    0.000082  -0.000002  -0.000002  -0.000018  -0.023377   0.393224
    17  H   -0.000095  -0.000004   0.000010  -0.000030   0.016738  -0.070680
    18  H    0.000159   0.000083   0.000034   0.000717  -0.000411   0.023423
    19  H   -0.007598   0.006901  -0.000090  -0.001522  -0.008097   0.007169
    20  H   -0.000125   0.024903  -0.031950   0.416087   0.000015   0.000079
    21  H    0.013562  -0.069475   0.400262  -0.029446  -0.000084  -0.000004
    22  H    0.400522  -0.026818   0.019075  -0.001003  -0.000274  -0.000304
    23  H   -0.022173   0.394668  -0.063348   0.016360   0.000086   0.000002
    24  H   -0.001843  -0.000217   0.004720   0.005626  -0.002962  -0.000301
              13         14         15         16         17         18
     1  C   -0.004301   0.188513  -0.013252   0.005247  -0.001922  -0.000788
     2  C    0.209549   0.005103  -0.070150   0.016864  -0.005699   0.007999
     3  C    0.052912  -0.293262   0.007567   0.000711  -0.000428   0.000197
     4  C    0.368539  -1.366522   0.004861  -0.005619   0.020116  -0.091006
     5  C   -0.389947   0.613550  -0.005357  -0.000252   0.001730   0.004447
     6  C   -0.191659   0.156721   0.002402  -0.000524   0.001016   0.000876
     7  C    0.021668  -0.047576   0.000132   0.000082  -0.000095   0.000159
     8  C    0.000947  -0.017597  -0.000271  -0.000002  -0.000004   0.000083
     9  C   -0.014138   0.021177   0.000158  -0.000002   0.000010   0.000034
    10  C    0.054737  -0.077453  -0.000221  -0.000018  -0.000030   0.000717
    11  C   -0.205324   0.082715   0.412473  -0.023377   0.016738  -0.000411
    12  C    0.372999   0.016797  -0.029746   0.393224  -0.070680   0.023423
    13  C    5.808352  -0.246774   0.020505  -0.061248   0.404142  -0.038174
    14  C   -0.246774   6.916691  -0.000764   0.011447  -0.028712   0.416528
    15  H    0.020505  -0.000764   0.585823  -0.006933  -0.000428   0.000094
    16  H   -0.061248   0.011447  -0.006933   0.589006  -0.004586  -0.000419
    17  H    0.404142  -0.028712  -0.000428  -0.004586   0.588807  -0.007708
    18  H   -0.038174   0.416528   0.000094  -0.000419  -0.007708   0.596521
    19  H    0.000039  -0.002159   0.006538  -0.000053  -0.000002   0.000033
    20  H    0.000002   0.000408   0.000000   0.000000  -0.000000   0.000015
    21  H    0.000008  -0.000044   0.000000   0.000000  -0.000000  -0.000000
    22  H    0.000136   0.000221   0.000013   0.000000   0.000000   0.000000
    23  H   -0.000002  -0.000033  -0.000000  -0.000000   0.000000   0.000000
    24  H    0.007221  -0.001409   0.000024  -0.000002  -0.000045   0.006081
              19         20         21         22         23         24
     1  C    0.409872  -0.000602  -0.002674  -0.011316   0.005020   0.002564
     2  C   -0.047343   0.000098  -0.000419   0.003180   0.000576   0.010227
     3  C   -0.053955   0.006957  -0.006655  -0.060380   0.012832   0.011021
     4  C    0.007096  -0.000042   0.001377   0.002887  -0.000584  -0.043921
     5  C    0.004271   0.001879   0.001951  -0.003450   0.000060   0.401941
     6  C    0.006864  -0.093197   0.027935   0.005277  -0.006939  -0.059637
     7  C   -0.007598  -0.000125   0.013562   0.400522  -0.022173  -0.001843
     8  C    0.006901   0.024903  -0.069475  -0.026818   0.394668  -0.000217
     9  C   -0.000090  -0.031950   0.400262   0.019075  -0.063348   0.004720
    10  C   -0.001522   0.416087  -0.029446  -0.001003   0.016360   0.005626
    11  C   -0.008097   0.000015  -0.000084  -0.000274   0.000086  -0.002962
    12  C    0.007169   0.000079  -0.000004  -0.000304   0.000002  -0.000301
    13  C    0.000039   0.000002   0.000008   0.000136  -0.000002   0.007221
    14  C   -0.002159   0.000408  -0.000044   0.000221  -0.000033  -0.001409
    15  H    0.006538   0.000000   0.000000   0.000013  -0.000000   0.000024
    16  H   -0.000053   0.000000   0.000000   0.000000  -0.000000  -0.000002
    17  H   -0.000002  -0.000000  -0.000000   0.000000   0.000000  -0.000045
    18  H    0.000033   0.000015  -0.000000   0.000000   0.000000   0.006081
    19  H    0.579106   0.000033  -0.000002   0.006641  -0.000058   0.000082
    20  H    0.000033   0.596885  -0.007943   0.000095  -0.000427   0.005690
    21  H   -0.000002  -0.007943   0.588907  -0.000429  -0.004472  -0.000041
    22  H    0.006641   0.000095  -0.000429   0.586653  -0.007005   0.000024
    23  H   -0.000058  -0.000427  -0.004472  -0.007005   0.588733  -0.000002
    24  H    0.000082   0.005690  -0.000041   0.000024  -0.000002   0.558556
 Mulliken charges:
               1
     1  C   -0.116125
     2  C    0.319168
     3  C    0.405362
     4  C    0.488501
     5  C   -0.544581
     6  C    0.410215
     7  C   -0.192958
     8  C   -0.168821
     9  C   -0.154285
    10  C   -0.384636
    11  C   -0.243444
    12  C   -0.167329
    13  C   -0.170189
    14  C   -0.347566
    15  H    0.086533
    16  H    0.086454
    17  H    0.087780
    18  H    0.081299
    19  H    0.086233
    20  H    0.081138
    21  H    0.087687
    22  H    0.086256
    23  H    0.086706
    24  H    0.096605
 Sum of Mulliken charges =  -0.00000
 Mulliken charges with hydrogens summed into heavy atoms:
               1
     1  C   -0.029892
     2  C    0.319168
     3  C    0.405362
     4  C    0.488501
     5  C   -0.447976
     6  C    0.410215
     7  C   -0.106702
     8  C   -0.082115
     9  C   -0.066598
    10  C   -0.303499
    11  C   -0.156912
    12  C   -0.080875
    13  C   -0.082409
    14  C   -0.266267
 Electronic spatial extent (au):  <R**2>=           2833.2468
 Charge=             -0.0000 electrons
 Dipole moment (field-independent basis, Debye):
    X=             -0.0108    Y=             -0.0817    Z=              0.4423  Tot=              0.4500
 Quadrupole moment (field-independent basis, Debye-Ang):
   XX=            -72.8104   YY=            -72.1778   ZZ=            -88.5014
   XY=             -0.0833   XZ=              0.0885   YZ=              0.3081
 Traceless Quadrupole moment (field-independent basis, Debye-Ang):
   XX=              5.0195   YY=              5.6521   ZZ=            -10.6716
   XY=             -0.0833   XZ=              0.0885   YZ=              0.3081
 Octapole moment (field-independent basis, Debye-Ang**2):
  XXX=              0.0146  YYY=             -0.3219  ZZZ=              0.3328  XYY=             -0.1298
  XXY=             -1.1307  XXZ=             14.5086  XZZ=              0.0140  YZZ=              0.0232
  YYZ=              0.6607  XYZ=              1.3702
 Hexadecapole moment (field-independent basis, Debye-Ang**3):
 XXXX=          -2842.4929 YYYY=           -707.9828 ZZZZ=           -128.3985 XXXY=             -1.8968
 XXXZ=             -0.1843 YYYX=             -0.5816 YYYZ=              1.6612 ZZZX=              0.2131
 ZZZY=              0.6179 XXYY=           -605.0908 XXZZ=           -601.7730 YYZZ=           -166.9805
 XXYZ=              3.9478 YYXZ=              1.0228 ZZXY=              0.6128
 N-N= 7.664648408551D+02 E-N=-2.784421613991D+03  KE= 5.370910440971D+02
 Leave Link  601 at Fri Jul 19 12:12:11 2024, MaxMem=   104857600 cpu:               1.0 elap:               0.1
 (Enter /curc/sw/install/gaussian/g16_c.02/g16/l9999.exe)
 Electronic transition elements 
                 1             2             3             4             5 
      1  -0.539553D+03 -0.539528D+03 -0.539504D+03 -0.539491D+03 -0.539488D+03
      2   0.177994D+00  0.110992D+00  0.265495D-01 -0.204567D+00  0.506596D-01
      3   0.264005D+00 -0.679874D-01 -0.228289D-01  0.141190D+00  0.404158D-01
      4  -0.767423D+00  0.554488D-02  0.183414D-02 -0.102070D-02 -0.370200D-02
      5  -0.210386D-01 -0.149928D-01 -0.401627D-02  0.357599D-01 -0.888830D-02
      6  -0.310581D-01  0.915875D-02  0.347338D-02 -0.247976D-01 -0.711401D-02
      7   0.900793D-01 -0.690050D-03 -0.280919D-03  0.127646D-03  0.753265D-03
      8   0.204295D+00 -0.220904D-01 -0.145565D+00 -0.724667D+00  0.120121D+00
      9  -0.118412D+00 -0.557409D-01 -0.238163D+00 -0.120484D+01 -0.220459D+00
     10  -0.240643D-01 -0.455731D-01 -0.115924D+00 -0.648231D+00 -0.825260D-01
     11   0.442149D-01 -0.167570D-01  0.209195D-01 -0.287126D+00 -0.107318D+00
     12   0.452656D-01  0.172975D-01 -0.181771D-01  0.252016D+00  0.222052D-01
     13  -0.646324D-01 -0.351507D-02 -0.437927D-02  0.514339D-01  0.436474D-01
     14  -0.317543D-02 -0.452966D-02  0.738901D-02 -0.126263D+00  0.308167D-01
     15  -0.184895D-01  0.313552D-03 -0.391115D-01  0.554498D+00  0.461038D-01
     16  -0.366232D-01 -0.382586D-02  0.250794D-01 -0.346181D+00 -0.228043D-01
                 6             7             8             9            10 
      1  -0.539485D+03 -0.539481D+03 -0.539479D+03 -0.539477D+03 -0.539466D+03
      2   0.648803D-02  0.319102D+01 -0.201802D+00  0.954969D+00 -0.256873D-01
      3  -0.112303D-01 -0.193173D+01  0.251668D-01 -0.582564D+00 -0.338018D-03
      4   0.127038D-01  0.155729D+00 -0.579141D-01  0.363076D-01  0.473193D-01
      5  -0.125921D-02 -0.592516D+00  0.377269D-01 -0.180112D+00  0.513845D-02
      6   0.192458D-02  0.358689D+00 -0.514244D-02  0.109870D+00  0.118592D-03
      7  -0.199013D-02 -0.290318D-01  0.925924D-02 -0.687142D-02 -0.971733D-02
      8   0.886156D-01  0.647037D-01 -0.171733D-01  0.100332D+00  0.152306D-01
      9  -0.888306D-01  0.902465D-01 -0.263919D-01  0.159956D+00 -0.226168D-01
     10   0.620826D-02 -0.461792D+00  0.816698D-02 -0.444665D-01  0.940220D-02
     11   0.752400D-01 -0.237536D+00 -0.604756D-01 -0.662221D-01 -0.737265D-01
     12   0.123946D+00  0.208585D+00  0.202822D-02  0.803120D-01 -0.172651D-01
     13  -0.171142D+00  0.155700D-01  0.914512D-02 -0.121196D-01  0.955380D-01
     14   0.510494D-01 -0.120840D+00  0.696404D-01 -0.366384D-01  0.801666D-01
     15  -0.291463D-01 -0.924014D-01  0.338030D-01 -0.612159D-02 -0.319199D-01
     16  -0.890702D-01  0.530862D-01  0.305538D-01  0.304297D-01 -0.445929D-01
                11            12            13            14            15 
      1  -0.539460D+03 -0.539459D+03 -0.539458D+03 -0.539455D+03 -0.539453D+03
      2  -0.747397D-01 -0.959319D-01 -0.142684D+00 -0.967396D-01 -0.625812D-01
      3   0.641625D-01  0.722479D-01 -0.272769D+00 -0.130424D+00 -0.927085D-01
      4   0.567321D-01 -0.235152D-01  0.554591D+00  0.450037D+00  0.136242D+00
      5   0.156751D-01  0.199499D-01  0.300392D-01  0.209988D-01  0.133725D-01
      6  -0.126668D-01 -0.152066D-01  0.573624D-01  0.282329D-01  0.198027D-01
      7  -0.121153D-01  0.511717D-02 -0.116777D+00 -0.962575D-01 -0.291441D-01
      8  -0.202076D+00  0.172120D+00 -0.700329D-01  0.188112D-01 -0.288026D-02
      9   0.159239D+00  0.169989D+00  0.471730D-01 -0.312865D-01 -0.158225D-01
     10  -0.605069D-01 -0.487037D+00 -0.905412D-02  0.221056D-01  0.189192D-01
     11  -0.115079D+00 -0.387302D+00  0.511396D-01 -0.665890D-01  0.279003D+00
     12  -0.602329D-01  0.404351D+00  0.501662D-01 -0.623809D-01  0.599518D-01
     13   0.168998D+00 -0.205000D-01 -0.521429D-01  0.119589D+00 -0.136456D+00
     14  -0.722726D-01 -0.198979D+00 -0.809110D-02  0.524546D-01 -0.182190D+00
     15   0.399590D-01 -0.194169D+00 -0.175742D-01  0.162463D-01  0.460177D-01
     16   0.139221D+00  0.683323D-01 -0.200840D-01  0.386723D-01  0.182806D-01
                16            17            18            19            20 
      1  -0.539446D+03 -0.539445D+03 -0.539444D+03 -0.539442D+03 -0.539440D+03
      2   0.160489D-01  0.705391D-03 -0.524072D-01  0.193053D+00 -0.187032D+00
      3   0.366024D-01 -0.667255D-02 -0.312931D-02 -0.135873D+00 -0.269700D+00
      4   0.192607D-02 -0.480170D-01  0.542637D-01 -0.299438D-02 -0.128817D+00
      5  -0.361157D-02 -0.403754D-03  0.114882D-01 -0.433598D-01  0.420432D-01
      6  -0.801203D-02  0.109597D-02  0.589809D-03  0.305161D-01  0.604034D-01
      7   0.947604D-03  0.109959D-01 -0.121009D-01  0.654853D-03  0.285505D-01
      8   0.123989D+00  0.508838D-01  0.222545D-01  0.157215D+00 -0.931694D-02
      9  -0.830079D-01 -0.352926D-01 -0.927708D-01  0.226885D+00 -0.195617D-01
     10  -0.375667D-02 -0.252080D-02  0.123568D-01 -0.872158D-01 -0.103364D-01
     11  -0.153289D+00  0.341870D-01  0.256021D-01 -0.437916D-01 -0.334090D-04
     12   0.697430D-02  0.554346D-01  0.359441D-01  0.119521D+00  0.468752D-01
     13   0.499935D-01  0.101365D-01 -0.152311D+00 -0.520517D-01  0.580411D-02
     14   0.134432D+00  0.137228D-01  0.218889D-01 -0.712097D-01  0.109857D-01
     15  -0.516639D-01 -0.127295D-01  0.744306D-01 -0.157711D+00  0.139938D-01
     16  -0.522261D-01 -0.839002D-02  0.366798D-01  0.108950D+00  0.792038D-02
 Unable to Open any file for archive entry.
 1\1\GINC-C3CPU-A7-U5-3\SP\RB3LYP TD-FC\6-311+G(2d,p)\C14H10\SILE6618\1
 9-Jul-2024\0\\#P B3LYP/6-311+G(2d,p) TD(NStates=20,Root=0)\\TD-DFT exc
 ited state calculation: B3LYP/6-311+G(2d,p)\\0,1\C,0,10.70051,5.44882,
 23.71103\C,0,9.86535,6.36033,23.06568\C,0,11.92708,5.09157,23.15315\C,
 0,10.20494,6.81277,21.73154\C,0,11.36552,6.33847,21.05453\C,0,12.28918
 ,5.58033,21.83391\C,0,12.86133,4.31545,23.9032\C,0,14.13694,4.09733,23
 .44877\C,0,14.53031,4.64821,22.20398\C,0,13.6257,5.33579,21.43452\C,0,
 8.71898,6.89515,23.72297\C,0,7.97054,7.8934,23.15017\C,0,8.32225,8.375
 5,21.86646\C,0,9.37377,7.81691,21.18403\H,0,8.47903,6.52006,24.71974\H
 ,0,7.118,8.32084,23.67852\H,0,7.74314,9.17777,21.40694\H,0,9.62716,8.1
 7517,20.18813\H,0,10.4301,5.07732,24.70245\H,0,13.95536,5.76717,20.496
 6\H,0,15.55371,4.52044,21.84723\H,0,12.54422,3.93771,24.87737\H,0,14.8
 505,3.52914,24.04618\H,0,11.6372,6.71833,20.07691\\Version=ES64L-G16Re
 vC.02\State=1-A\HF=-539.6661812\RMSD=8.920e-09\PG=C01 [X(C14H10)]\\@
 The archive entry for this job was punched.


 A ROPE OVER THE TOP OF A FENCE HAS THE SAME LENGTH ON EACH SIDE.
 WEIGHS 1/3 POUND PER FOOT.  ON ONE END HANGS A MONKEY HOLDING A
 BANANA, AND ON THE OTHER END A WEIGHT EQUAL TO THE WEIGHT
 OF THE MONKEY.  THE BANANA WEIGHS TWO OUNCES PER INCH.
 THE ROPE IS AS LONG AS THE AGE OF THE MONKEY, 
 AND THE WEIGHT OF THE MONKEY (IN OUNCES) IS AS MUCH
 AS THE AGE OF THE MONKEY'S MOTHER.  THE COMBINED AGES OF MONKEY
 AND MOTHER ARE THIRTY YEARS.  HALF THE WEIGHT OF THE MONKEY,
  PLUS THE WEIGHT OF THE BANANA, IS ONE FOURTH AS MUCH AS THE WEIGHT
 OF THE WEIGHT AND THE ROPE.
 THE MONKEY'S MOTHER IS HALF AS OLD AS THE MONKEY WILL BE
 WHEN IT IS 3 TIMES AS OLD AS ITS MOTHER WAS WHEN
 SHE WAS HALF AS OLD AS THE MONKEY WILL BE WHEN IT IS
 AS OLD AS ITS MOTHER WILL BE WHEN SHE IS 4 TIMES AS
 OLD AS THE MONKEY WAS WHEN IT WAS TWICE AS OLD AS 
 ITS MOTHER WAS WHEN SHE WAS ONE THIRD AS OLD AS THE
 MONKEY WAS WHEN IT WAS AS OLD AS ITS MOTHER WAS WHEN 
 SHE WAS 3 TIMES AS OLD AS THE MONKEY WAS WHEN IT WAS AS OLD AS ITS
 MOTHER WAS WHEN SHE WAS 3 TIMES AS OLD AS THE MONKEY 
 WAS WHEN IT WAS ONE FOURTH WAS OLD AS IT IS NOW.

 HOW LONG IS THE BANANA?
 Job cpu time:       0 days  5 hours 26 minutes 44.7 seconds.
 Elapsed time:       0 days  0 hours 10 minutes 29.7 seconds.
 File lengths (MBytes):  RWF=   1245 Int=      0 D2E=      0 Chk=    184 Scr=      1
 Normal termination of Gaussian 16 at Fri Jul 19 12:12:13 2024.
