 Entering Gaussian System, Link 0=g16
 Initial command:
 /curc/sw/gaussian/16/g16/l1.exe "/gpfs/alpine1/scratch/sile6618/Gaussian/anthracene_bend/B3LYP/cc-pVDZ_basis/Gau-2526496.inp" -scrdir="/gpfs/alpine1/scratch/sile6618/Gaussian/anthracene_bend/B3LYP/cc-pVDZ_basis/"
 Entering Link 1 = /curc/sw/gaussian/16/g16/l1.exe PID=   2526497.
  
 Copyright (c) 1988,1990,1992,1993,1995,1998,2003,2009,2016,
            Gaussian, Inc.  All Rights Reserved.
  
 This is part of the Gaussian(R) 16 program.  It is based on
 the Gaussian(R) 09 system (copyright 2009, Gaussian, Inc.),
 the Gaussian(R) 03 system (copyright 2003, Gaussian, Inc.),
 the Gaussian(R) 98 system (copyright 1998, Gaussian, Inc.),
 the Gaussian(R) 94 system (copyright 1995, Gaussian, Inc.),
 the Gaussian 92(TM) system (copyright 1992, Gaussian, Inc.),
 the Gaussian 90(TM) system (copyright 1990, Gaussian, Inc.),
 the Gaussian 88(TM) system (copyright 1988, Gaussian, Inc.),
 the Gaussian 86(TM) system (copyright 1986, Carnegie Mellon
 University), and the Gaussian 82(TM) system (copyright 1983,
 Carnegie Mellon University). Gaussian is a federally registered
 trademark of Gaussian, Inc.
  
 This software contains proprietary and confidential information,
 including trade secrets, belonging to Gaussian, Inc.
  
 This software is provided under written license and may be
 used, copied, transmitted, or stored only in accord with that
 written license.
  
 The following legend is applicable only to US Government
 contracts under FAR:
  
                    RESTRICTED RIGHTS LEGEND
  
 Use, reproduction and disclosure by the US Government is
 subject to restrictions as set forth in subparagraphs (a)
 and (c) of the Commercial Computer Software - Restricted
 Rights clause in FAR 52.227-19.
  
 Gaussian, Inc.
 340 Quinnipiac St., Bldg. 40, Wallingford CT 06492
  
  
 ---------------------------------------------------------------
 Warning -- This program may not be used in any manner that
 competes with the business of Gaussian, Inc. or will provide
 assistance to any competitor of Gaussian, Inc.  The licensee
 of this program is prohibited from giving any competitor of
 Gaussian, Inc. access to this program.  By using this program,
 the user acknowledges that Gaussian, Inc. is engaged in the
 business of creating and licensing software in the field of
 computational chemistry and represents and warrants to the
 licensee that it is not a competitor of Gaussian, Inc. and that
 it will not use this program in any manner prohibited above.
 ---------------------------------------------------------------
  

 Cite this work as:
 Gaussian 16, Revision A.03,
 M. J. Frisch, G. W. Trucks, H. B. Schlegel, G. E. Scuseria, 
 M. A. Robb, J. R. Cheeseman, G. Scalmani, V. Barone, 
 G. A. Petersson, H. Nakatsuji, X. Li, M. Caricato, A. V. Marenich, 
 J. Bloino, B. G. Janesko, R. Gomperts, B. Mennucci, H. P. Hratchian, 
 J. V. Ortiz, A. F. Izmaylov, J. L. Sonnenberg, D. Williams-Young, 
 F. Ding, F. Lipparini, F. Egidi, J. Goings, B. Peng, A. Petrone, 
 T. Henderson, D. Ranasinghe, V. G. Zakrzewski, J. Gao, N. Rega, 
 G. Zheng, W. Liang, M. Hada, M. Ehara, K. Toyota, R. Fukuda, 
 J. Hasegawa, M. Ishida, T. Nakajima, Y. Honda, O. Kitao, H. Nakai, 
 T. Vreven, K. Throssell, J. A. Montgomery, Jr., J. E. Peralta, 
 F. Ogliaro, M. J. Bearpark, J. J. Heyd, E. N. Brothers, K. N. Kudin, 
 V. N. Staroverov, T. A. Keith, R. Kobayashi, J. Normand, 
 K. Raghavachari, A. P. Rendell, J. C. Burant, S. S. Iyengar, 
 J. Tomasi, M. Cossi, J. M. Millam, M. Klene, C. Adamo, R. Cammi, 
 J. W. Ochterski, R. L. Martin, K. Morokuma, O. Farkas, 
 J. B. Foresman, and D. J. Fox, Gaussian, Inc., Wallingford CT, 2016.
 
 ******************************************
 Gaussian 16:  ES64L-G16RevA.03 25-Dec-2016
                11-Apr-2024 
 ******************************************
 %Chk=tddft
 ----------------------------------
 # B3LYP/aug-cc-pVDZ TD(NStates=10)
 ----------------------------------
 1/38=1,172=1/1;
 2/12=2,17=6,18=5,40=1/2;
 3/5=16,7=10,11=9,25=1,30=1,74=-5/1,2,3,8;
 4//1;
 5/5=2,38=5/2;
 8/6=1,10=1,108=10/1;
 9/41=10,42=1,70=2/14;
 6/7=2,8=2,9=2,10=2/1;
 99/5=1,9=1/99;
 ---------------------------------------------------
 TD-DFT excited state calculation: B3LYP/aug-cc-pVDZ
 ---------------------------------------------------
 Symbolic Z-matrix:
 Charge =  0 Multiplicity = 1
 C                     10.70051   5.44882   23.71103 
 C                     9.86535   6.36033   23.06568 
 C                     11.92708   5.09157   23.15315 
 C                     10.20494   6.81277   21.73154 
 C                     11.36552   6.33847   21.05453 
 C                     12.28918   5.58033   21.83391 
 C                     12.86133   4.31545   23.9032 
 C                     14.13694   4.09733   23.44877 
 C                     14.53031   4.64821   22.20398 
 C                     13.6257   5.33579   21.43452 
 C                     8.71898   6.89515   23.72297 
 C                     7.97054   7.8934    23.15017 
 C                     8.32225   8.3755    21.86646 
 C                     9.37377   7.81691   21.18403 
 H                     8.47903   6.52006   24.71974 
 H                     7.118     8.32084   23.67852 
 H                     7.74314   9.17777   21.40694 
 H                     9.62716   8.17517   20.18813 
 H                     10.4301   5.07732   24.70245 
 H                     13.95536   5.76717   20.4966 
 H                     15.55371   4.52044   21.84723 
 H                     12.54422   3.93771   24.87737 
 H                     14.8505   3.52914   24.04618 
 H                     11.6372   6.71833   20.07691 
 
                          Input orientation:                          
 ---------------------------------------------------------------------
 Center     Atomic      Atomic             Coordinates (Angstroms)
 Number     Number       Type             X           Y           Z
 ---------------------------------------------------------------------
      1          6           0       10.700510    5.448820   23.711030
      2          6           0        9.865350    6.360330   23.065680
      3          6           0       11.927080    5.091570   23.153150
      4          6           0       10.204940    6.812770   21.731540
      5          6           0       11.365520    6.338470   21.054530
      6          6           0       12.289180    5.580330   21.833910
      7          6           0       12.861330    4.315450   23.903200
      8          6           0       14.136940    4.097330   23.448770
      9          6           0       14.530310    4.648210   22.203980
     10          6           0       13.625700    5.335790   21.434520
     11          6           0        8.718980    6.895150   23.722970
     12          6           0        7.970540    7.893400   23.150170
     13          6           0        8.322250    8.375500   21.866460
     14          6           0        9.373770    7.816910   21.184030
     15          1           0        8.479030    6.520060   24.719740
     16          1           0        7.118000    8.320840   23.678520
     17          1           0        7.743140    9.177770   21.406940
     18          1           0        9.627160    8.175170   20.188130
     19          1           0       10.430100    5.077320   24.702450
     20          1           0       13.955360    5.767170   20.496600
     21          1           0       15.553710    4.520440   21.847230
     22          1           0       12.544220    3.937710   24.877370
     23          1           0       14.850500    3.529140   24.046180
     24          1           0       11.637200    6.718330   20.076910
 ---------------------------------------------------------------------
                    Distance matrix (angstroms):
                    1          2          3          4          5
     1  C    0.000000
     2  C    1.394568   0.000000
     3  C    1.394034   2.422423   0.000000
     4  C    2.454451   1.449121   2.819445   0.000000
     5  C    2.879359   2.509126   2.504858   1.424868   0.000000
     6  C    2.462671   2.828535   1.452721   2.423519   1.426659
     7  C    2.447570   3.722750   1.427501   4.243716   3.800655
     8  C    3.701940   4.849166   2.441185   5.077708   4.293700
     9  C    4.192797   5.043385   2.806118   4.859768   3.767507
    10  C    3.708370   4.224997   2.428712   3.737819   2.501634
    11  C    2.453258   1.425562   3.724178   2.486093   3.799294
    12  C    3.707192   2.438800   4.848141   2.858814   4.281986
    13  C    4.198097   2.807169   5.043269   2.450480   3.751028
    14  C    3.708614   2.429791   4.221884   1.413827   2.483873
    15  H    2.664587   2.164096   4.047695   3.463204   4.668893
    16  H    4.591724   3.430321   5.816481   3.948950   5.371828
    17  H    5.287716   3.897841   6.103412   3.429147   4.616000
    18  H    4.582127   3.410377   4.856909   2.138242   2.673202
    19  H    1.092725   2.155011   2.154410   3.448012   3.971502
    20  H    4.585625   4.866230   3.409929   4.084606   2.710155
    21  H    5.281022   6.101414   3.896673   5.820438   4.634063
    22  H    2.653878   4.040749   2.164530   4.861527   4.665521
    23  H    4.584748   5.816248   3.432940   6.141743   5.383994
    24  H    3.961802   3.492902   3.491938   2.190454   1.083441
                    6          7          8          9         10
     6  C    0.000000
     7  C    2.491834   0.000000
     8  C    2.867277   1.371592   0.000000
     9  C    2.455293   2.404906   1.416937   0.000000
    10  C    1.416191   2.778441   2.419164   1.372281   0.000000
    11  C    4.247779   4.883277   6.103874   6.413082   5.634226
    12  C    5.072818   6.106440   7.247330   7.379506   6.439383
    13  C    4.852893   6.421492   7.390336   7.248905   6.128050
    14  C    3.731521   5.640672   6.453845   6.137659   4.929261
    15  H    4.871175   4.973087   6.284658   6.815487   6.219596
    16  H    6.136292   7.005674   8.194897   8.402667   7.503081
    17  H    5.812947   7.487946   8.417875   8.198650   7.026100
    18  H    4.065481   6.257718   6.899179   6.367415   5.060029
    19  H    3.455100   2.670230   4.033951   4.820603   4.577994
    20  H    2.144636   3.861258   3.396564   2.120798   1.083724
    21  H    3.432302   3.393810   2.179722   1.091303   2.133623
    22  H    3.467837   1.091904   2.145491   3.405345   3.870070
    23  H    3.957509   2.143717   1.090370   2.179115   3.403658
    24  H    2.192526   4.681113   4.948513   4.144865   2.776446
                   11         12         13         14         15
    11  C    0.000000
    12  C    1.372868   0.000000
    13  C    2.407376   1.415638   0.000000
    14  C    2.779318   2.416736   1.372380   0.000000
    15  H    1.091705   2.146666   3.407117   3.870869   0.000000
    16  H    2.144226   1.090267   2.176412   3.400724   2.485830
    17  H    3.395087   2.177193   1.090946   2.135552   4.310406
    18  H    3.867601   3.405505   2.135349   1.088289   4.959141
    19  H    2.681757   4.048372   4.833618   4.582627   2.426617
    20  H    6.253117   6.883339   6.357030   5.066060   6.956432
    21  H    7.474703   8.401130   8.194869   7.035496   7.893091
    22  H    4.971071   6.288820   6.825290   6.224203   4.818625
    23  H    7.002144   8.196551   8.417626   7.521399   7.070708
    24  H    4.673438   4.926471   4.115531   2.748765   5.618649
                   16         17         18         19         20
    16  H    0.000000
    17  H    2.507031   0.000000
    18  H    4.301154   2.457689   0.000000
    19  H    4.747511   5.907100   5.533577   0.000000
    20  H    7.962119   7.145109   4.962553   5.531051   0.000000
    21  H    9.431748   9.104372   7.157769   5.891840   2.435828
    22  H    7.077636   7.909013   6.960911   2.408072   4.952715
    23  H    9.104236   9.454479   7.984574   4.729428   4.290638
    24  H    5.996899   4.793905   2.484957   5.054268   2.540612
                   21         22         23         24
    21  H    0.000000
    22  H    4.310261   0.000000
    23  H    2.512481   2.485304   0.000000
    24  H    4.827401   5.621294   6.020908   0.000000
 Stoichiometry    C14H10
 Framework group  C1[X(C14H10)]
 Deg. of freedom    66
 Full point group                 C1      NOp   1
 Largest Abelian subgroup         C1      NOp   1
 Largest concise Abelian subgroup C1      NOp   1
                         Standard orientation:                         
 ---------------------------------------------------------------------
 Center     Atomic      Atomic             Coordinates (Angstroms)
 Number     Number       Type             X           Y           Z
 ---------------------------------------------------------------------
      1          6           0        0.003909   -1.386121   -0.212101
      2          6           0       -1.210358   -0.703665   -0.144058
      3          6           0        1.211926   -0.691853   -0.167177
      4          6           0       -1.213969    0.744744   -0.189345
      5          6           0       -0.007007    1.491335   -0.316201
      6          6           0        1.209397    0.760865   -0.167429
      7          6           0        2.445383   -1.399071   -0.039951
      8          6           0        3.627842   -0.739729    0.179876
      9          6           0        3.623167    0.674086    0.273760
     10          6           0        2.460023    1.376642    0.082277
     11          6           0       -2.437403   -1.408471    0.028669
     12          6           0       -3.619282   -0.741020    0.234674
     13          6           0       -3.625656    0.674596    0.239256
     14          6           0       -2.468446    1.370459   -0.005835
     15          1           0       -2.403751   -2.499602    0.039612
     16          1           0       -4.545442   -1.291099    0.402971
     17          1           0       -4.556336    1.215878    0.415357
     18          1           0       -2.481862    2.458522   -0.023538
     19          1           0        0.009443   -2.478829   -0.214432
     20          1           0        2.476473    2.455735    0.180991
     21          1           0        4.547724    1.211807    0.490543
     22          1           0        2.413486   -2.489925   -0.075642
     23          1           0        4.558284   -1.293911    0.306623
     24          1           0       -0.015171    2.574638   -0.300964
 ---------------------------------------------------------------------
 Rotational constants (GHZ):           2.0859008           0.4578030           0.3791735
 Standard basis: Aug-CC-pVDZ (5D, 7F)
 There are   440 symmetry adapted cartesian basis functions of A   symmetry.
 There are   412 symmetry adapted basis functions of A   symmetry.
   412 basis functions,   712 primitive gaussians,   440 cartesian basis functions
    47 alpha electrons       47 beta electrons
       nuclear repulsion energy       766.4648408551 Hartrees.
 NAtoms=   24 NActive=   24 NUniq=   24 SFac= 1.00D+00 NAtFMM=   60 NAOKFM=F Big=F
 Integral buffers will be    131072 words long.
 Regular integral format.
 Two-electron integral symmetry is turned on.
 One-electron integrals computed using PRISM.
 NBasis=   412 RedAO= T EigKep=  1.29D-06  NBF=   412
 NBsUse=   409 1.00D-06 EigRej=  8.98D-07 NBFU=   409
 ExpMin= 2.97D-02 ExpMax= 6.67D+03 ExpMxC= 2.28D+02 IAcc=3 IRadAn=         5 AccDes= 0.00D+00
 Harris functional with IExCor=  402 and IRadAn=       5 diagonalized for initial guess.
 HarFok:  IExCor=  402 AccDes= 0.00D+00 IRadAn=         5 IDoV= 1 UseB2=F ITyADJ=14
 ICtDFT=  3500011 ScaDFX=  1.000000  1.000000  1.000000  1.000000
 FoFCou: FMM=F IPFlag=           0 FMFlag=      100000 FMFlg1=           0
         NFxFlg=           0 DoJE=T BraDBF=F KetDBF=T FulRan=T
         wScrn=  0.000000 ICntrl=       500 IOpCl=  0 I1Cent=   200000004 NGrid=           0
         NMat0=    1 NMatS0=      1 NMatT0=    0 NMatD0=    1 NMtDS0=    0 NMtDT0=    0
 Petite list used in FoFCou.
 Requested convergence on RMS density matrix=1.00D-08 within 128 cycles.
 Requested convergence on MAX density matrix=1.00D-06.
 Requested convergence on             energy=1.00D-06.
 No special actions if energy rises.
 SCF Done:  E(RB3LYP) =  -539.576893868     A.U. after   15 cycles
            NFock= 15  Conv=0.50D-08     -V/T= 2.0061
 DoSCS=F DFT=T ScalE2(SS,OS)=  1.000000  1.000000
 ExpMin= 2.97D-02 ExpMax= 6.67D+03 ExpMxC= 2.28D+02 IAcc=3 IRadAn=         5 AccDes= 0.00D+00
 HarFok:  IExCor=  205 AccDes= 0.00D+00 IRadAn=         5 IDoV=-2 UseB2=F ITyADJ=14
 ICtDFT= 12500011 ScaDFX=  1.000000  1.000000  1.000000  1.000000
 Range of M.O.s used for correlation:    15   409
 NBasis=   412 NAE=    47 NBE=    47 NFC=    14 NFV=     0
 NROrb=    395 NOA=    33 NOB=    33 NVA=   362 NVB=   362

 **** Warning!!: The largest alpha MO coefficient is  0.10901692D+03

 Orbital symmetries:
       Occupied  (A) (A) (A) (A) (A) (A) (A) (A) (A) (A) (A) (A)
                 (A) (A) (A) (A) (A) (A) (A) (A) (A) (A) (A) (A)
                 (A) (A) (A) (A) (A) (A) (A) (A) (A) (A) (A) (A)
                 (A) (A) (A) (A) (A) (A) (A) (A) (A) (A) (A)
       Virtual   (A) (A) (A) (A) (A) (A) (A) (A) (A) (A) (A) (A)
                 (A) (A) (A) (A) (A) (A) (A) (A) (A) (A) (A) (A)
                 (A) (A) (A) (A) (A) (A) (A) (A) (A) (A) (A) (A)
                 (A) (A) (A) (A) (A) (A) (A) (A) (A) (A) (A) (A)
                 (A) (A) (A) (A) (A) (A) (A) (A) (A) (A) (A) (A)
                 (A) (A) (A) (A) (A) (A) (A) (A) (A) (A) (A) (A)
                 (A) (A) (A) (A) (A) (A) (A) (A) (A) (A) (A) (A)
                 (A) (A) (A) (A) (A) (A) (A) (A) (A) (A) (A) (A)
                 (A) (A) (A) (A) (A) (A) (A) (A) (A) (A) (A) (A)
                 (A) (A) (A) (A) (A) (A) (A) (A) (A) (A) (A) (A)
                 (A) (A) (A) (A) (A) (A) (A) (A) (A) (A) (A) (A)
                 (A) (A) (A) (A) (A) (A) (A) (A) (A) (A) (A) (A)
                 (A) (A) (A) (A) (A) (A) (A) (A) (A) (A) (A) (A)
                 (A) (A) (A) (A) (A) (A) (A) (A) (A) (A) (A) (A)
                 (A) (A) (A) (A) (A) (A) (A) (A) (A) (A) (A) (A)
                 (A) (A) (A) (A) (A) (A) (A) (A) (A) (A) (A) (A)
                 (A) (A) (A) (A) (A) (A) (A) (A) (A) (A) (A) (A)
                 (A) (A) (A) (A) (A) (A) (A) (A) (A) (A) (A) (A)
                 (A) (A) (A) (A) (A) (A) (A) (A) (A) (A) (A) (A)
                 (A) (A) (A) (A) (A) (A) (A) (A) (A) (A) (A) (A)
                 (A) (A) (A) (A) (A) (A) (A) (A) (A) (A) (A) (A)
                 (A) (A) (A) (A) (A) (A) (A) (A) (A) (A) (A) (A)
                 (A) (A) (A) (A) (A) (A) (A) (A) (A) (A) (A) (A)
                 (A) (A) (A) (A) (A) (A) (A) (A) (A) (A) (A) (A)
                 (A) (A) (A) (A) (A) (A) (A) (A) (A) (A) (A) (A)
                 (A) (A) (A) (A) (A) (A) (A) (A) (A) (A) (A) (A)
                 (A) (A) (A) (A) (A) (A) (A) (A) (A) (A) (A) (A)
                 (A) (A) (A) (A) (A) (A) (A) (A) (A) (A) (A) (A)
                 (A) (A) (A) (A) (A) (A) (A) (A) (A) (A) (A) (A)
                 (A) (A) (A) (A) (A) (A) (A) (A) (A) (A) (A) (A)
                 (A) (A)
    40 initial guesses have been made.
 Convergence on wavefunction:    0.001000000000000
 Iteration     1 Dimension    40 NMult     0 NNew     40
 CISAX will form    40 AO SS matrices at one time.
 New state      2 was old state      3
 New state      3 was old state      4
 New state      4 was old state      6
 New state      5 was old state      7
 New state      6 was old state      8
 New state      7 was old state      9
 New state      8 was old state     10
 New state      9 was old state     11
 New state     10 was old state      5
 Iteration     2 Dimension    60 NMult    40 NNew     20
 New state      5 was old state     10
 New state      7 was old state      5
 New state      8 was old state      7
 New state      9 was old state     12
 New state     10 was old state      8
 Iteration     3 Dimension    80 NMult    60 NNew     20
 Iteration     4 Dimension   100 NMult    80 NNew     20
 Iteration     5 Dimension   116 NMult   100 NNew     16
 Iteration     6 Dimension   118 NMult   116 NNew      2
 ***********************************************************************
 Excited states from <AA,BB:AA,BB> singles matrix:
 ***********************************************************************
 
 Ground to excited state transition densities written to RWF  633
 Ground to excited state transition electric dipole moments (Au):
       state          X           Y           Z        Dip. S.      Osc.
         1        -0.0189      0.8234     -0.0312      0.6794      0.0513
         2        -0.1336     -0.0001      0.0006      0.0178      0.0016
         3        -0.0317      0.0029      0.0047      0.0010      0.0001
         4         0.0221      0.0045      0.0233      0.0011      0.0001
         5         0.2766      0.0027     -0.0179      0.0768      0.0089
         6         0.1122      0.0250      0.0861      0.0206      0.0024
         7         0.4016     -0.0057     -0.0395      0.1629      0.0194
         8         0.0762     -0.0310      0.0799      0.0132      0.0016
         9        -3.8755     -0.0127     -0.0009     15.0197      1.8580
        10         0.1384      0.0222     -0.0292      0.0205      0.0027
 Ground to excited state transition velocity dipole moments (Au):
       state          X           Y           Z        Dip. S.      Osc.
         1         0.0021     -0.0922      0.0035      0.0085      0.0501
         2         0.0185      0.0000     -0.0001      0.0003      0.0017
         3         0.0050     -0.0005     -0.0007      0.0000      0.0001
         4        -0.0037     -0.0008     -0.0041      0.0000      0.0001
         5        -0.0480     -0.0004      0.0031      0.0023      0.0088
         6        -0.0198     -0.0041     -0.0151      0.0006      0.0024
         7        -0.0711      0.0010      0.0069      0.0051      0.0191
         8        -0.0136      0.0053     -0.0140      0.0004      0.0015
         9         0.7117      0.0022      0.0002      0.5066      1.8200
        10        -0.0267     -0.0045      0.0056      0.0008      0.0026
 Ground to excited state transition magnetic dipole moments (Au):
       state          X           Y           Z
         1         0.2333      0.0321     -0.0106
         2        -0.0081     -0.0181      0.0720
         3         0.0075      0.0102      0.3427
         4         0.1979      0.0000      0.0669
         5         0.0033      0.0025      1.4924
         6         0.1172      0.0496     -0.2163
         7        -0.0308      0.0623     -0.2898
         8        -0.0495     -0.0034     -0.0114
         9         0.0115     -0.4760      0.0169
        10         0.2362     -0.0018     -0.0117
 Ground to excited state transition velocity quadrupole moments (Au):
       state          XX          YY          ZZ          XY          XZ          YZ
         1         0.0476     -0.0157     -0.0071     -0.0001     -0.0033      0.0685
         2         0.0031      0.0007     -0.0009      0.0085      0.0171     -0.0046
         3        -0.0001      0.0005      0.0010     -0.0380      0.0024      0.0016
         4        -0.0165     -0.0214      0.0400      0.0346     -0.0033      0.1449
         5        -0.0276      0.0155     -0.0057      0.6890     -0.0030     -0.0147
         6        -0.0551      0.0528     -0.0258     -0.0717     -0.0221     -0.0782
         7        -0.0228      0.0082      0.0037     -0.0500     -0.0269      0.0094
         8         0.1331      0.0022     -0.0744      0.0201      0.0026      0.0628
         9         0.0116     -0.0011     -0.0020      0.0108      0.2915      0.0251
        10         0.0086      0.0141     -0.0261     -0.0038      0.0111      0.1678
 <0|del|b> * <b|rxdel|0> + <0|del|b> * <b|delr+rdel|0>
 Rotatory Strengths (R) in cgs (10**-40 erg-esu-cm/Gauss)
       state          XX          YY          ZZ    R(velocity)    E-M Angle
         1       -10.3250      1.8903     -7.1995     -5.2114       96.61
         2        -0.0124     -0.6119     -0.1635     -0.2626       96.39
         3        -0.4548     -0.4583      0.0520     -0.2870       96.50
         4        -0.8615     -2.9234     -0.4045     -1.3965      150.12
         5        13.4645      6.0630     -1.7496      5.9260       86.49
         6         8.0465      2.8000     -7.9038      0.9809       83.28
         7        -4.4895     -0.2707      5.7282      0.3227       89.34
         8        -0.3019      0.5095      2.9928      1.0668       37.71
         9        -3.1926     49.6118    -19.2275      9.0639       88.79
        10        -0.0533    -19.6307     -3.3849     -7.6896      166.77
 1/2[<0|r|b>*<b|rxdel|0> + (<0|rxdel|b>*<b|r|0>)*]
 Rotatory Strengths (R) in cgs (10**-40 erg-esu-cm/Gauss)
       state          XX          YY          ZZ     R(length)
         1         3.1189    -18.7102     -0.2333     -5.2748
         2        -0.7644     -0.0011     -0.0315     -0.2657
         3         0.1690     -0.0211     -1.1504     -0.3342
         4        -3.0929     -0.0001     -1.1003     -1.3978
         5        -0.6527     -0.0047     18.8544      6.0656
         6        -9.2948     -0.8790     13.1685      0.9982
         7         8.7516      0.2498     -8.0959      0.3018
         8         2.6682     -0.0742      0.6434      1.0791
         9        31.4755     -4.2868      0.0105      9.0664
        10       -23.1107      0.0280     -0.2419     -7.7749
  1/2[<0|del|b>*<b|r|0> + (<0|r|b>*<b|del|0>)*] (Au)
       state          X           Y           Z        Dip. S.   Osc.(frdel)
         1        -0.0000     -0.0759     -0.0001      0.0761      0.0507
         2        -0.0025     -0.0000     -0.0000      0.0025      0.0016
         3        -0.0002     -0.0000     -0.0000      0.0002      0.0001
         4        -0.0001     -0.0000     -0.0001      0.0002      0.0001
         5        -0.0133     -0.0000     -0.0001      0.0133      0.0089
         6        -0.0022     -0.0001     -0.0013      0.0036      0.0024
         7        -0.0285     -0.0000     -0.0003      0.0288      0.0192
         8        -0.0010     -0.0002     -0.0011      0.0023      0.0015
         9        -2.7584     -0.0000     -0.0000      2.7584      1.8389
        10        -0.0037     -0.0001     -0.0002      0.0040      0.0026

 Excitation energies and oscillator strengths:
 
 Excited State   1:      Singlet-A      3.0810 eV  402.42 nm  f=0.0513  <S**2>=0.000
      47 -> 48         0.70066
 This state for optimization and/or second-order correction.
 Total Energy, E(TD-HF/TD-DFT) =  -539.463669659    
 Copying the excited state density for this state as the 1-particle RhoCI density.
 
 Excited State   2:      Singlet-A      3.7612 eV  329.64 nm  f=0.0016  <S**2>=0.000
      46 -> 48         0.51412
      47 -> 49        -0.48295
 
 Excited State   3:      Singlet-A      4.4091 eV  281.20 nm  f=0.0001  <S**2>=0.000
      45 -> 48         0.59613
      47 -> 50         0.29502
      47 -> 51        -0.22917
 
 Excited State   4:      Singlet-A      4.6485 eV  266.72 nm  f=0.0001  <S**2>=0.000
      47 -> 50         0.46296
      47 -> 51         0.52366
 
 Excited State   5:      Singlet-A      4.7549 eV  260.75 nm  f=0.0089  <S**2>=0.000
      45 -> 48        -0.35742
      47 -> 50         0.42934
      47 -> 51        -0.40207
 
 Excited State   6:      Singlet-A      4.8442 eV  255.94 nm  f=0.0024  <S**2>=0.000
      44 -> 48         0.16021
      47 -> 52         0.22662
      47 -> 53         0.35119
      47 -> 54         0.53986
 
 Excited State   7:      Singlet-A      4.8582 eV  255.21 nm  f=0.0194  <S**2>=0.000
      47 -> 52         0.64136
      47 -> 53        -0.23241
      47 -> 54        -0.12038
 
 Excited State   8:      Singlet-A      4.8799 eV  254.07 nm  f=0.0016  <S**2>=0.000
      47 -> 52         0.12215
      47 -> 53         0.56265
      47 -> 54        -0.39321
 
 Excited State   9:      Singlet-A      5.0493 eV  245.55 nm  f=1.8580  <S**2>=0.000
      46 -> 48         0.47393
      47 -> 49         0.50459
      47 -> 52         0.10342
 
 Excited State  10:      Singlet-A      5.3123 eV  233.39 nm  f=0.0027  <S**2>=0.000
      47 -> 55         0.69517
 SavETr:  write IOETrn=   770 NScale= 10 NData=  16 NLR=1 NState=   10 LETran=     190.

 **********************************************************************

            Population analysis using the SCF density.

 **********************************************************************

 Orbital symmetries:
       Occupied  (A) (A) (A) (A) (A) (A) (A) (A) (A) (A) (A) (A)
                 (A) (A) (A) (A) (A) (A) (A) (A) (A) (A) (A) (A)
                 (A) (A) (A) (A) (A) (A) (A) (A) (A) (A) (A) (A)
                 (A) (A) (A) (A) (A) (A) (A) (A) (A) (A) (A)
       Virtual   (A) (A) (A) (A) (A) (A) (A) (A) (A) (A) (A) (A)
                 (A) (A) (A) (A) (A) (A) (A) (A) (A) (A) (A) (A)
                 (A) (A) (A) (A) (A) (A) (A) (A) (A) (A) (A) (A)
                 (A) (A) (A) (A) (A) (A) (A) (A) (A) (A) (A) (A)
                 (A) (A) (A) (A) (A) (A) (A) (A) (A) (A) (A) (A)
                 (A) (A) (A) (A) (A) (A) (A) (A) (A) (A) (A) (A)
                 (A) (A) (A) (A) (A) (A) (A) (A) (A) (A) (A) (A)
                 (A) (A) (A) (A) (A) (A) (A) (A) (A) (A) (A) (A)
                 (A) (A) (A) (A) (A) (A) (A) (A) (A) (A) (A) (A)
                 (A) (A) (A) (A) (A) (A) (A) (A) (A) (A) (A) (A)
                 (A) (A) (A) (A) (A) (A) (A) (A) (A) (A) (A) (A)
                 (A) (A) (A) (A) (A) (A) (A) (A) (A) (A) (A) (A)
                 (A) (A) (A) (A) (A) (A) (A) (A) (A) (A) (A) (A)
                 (A) (A) (A) (A) (A) (A) (A) (A) (A) (A) (A) (A)
                 (A) (A) (A) (A) (A) (A) (A) (A) (A) (A) (A) (A)
                 (A) (A) (A) (A) (A) (A) (A) (A) (A) (A) (A) (A)
                 (A) (A) (A) (A) (A) (A) (A) (A) (A) (A) (A) (A)
                 (A) (A) (A) (A) (A) (A) (A) (A) (A) (A) (A) (A)
                 (A) (A) (A) (A) (A) (A) (A) (A) (A) (A) (A) (A)
                 (A) (A) (A) (A) (A) (A) (A) (A) (A) (A) (A) (A)
                 (A) (A) (A) (A) (A) (A) (A) (A) (A) (A) (A) (A)
                 (A) (A) (A) (A) (A) (A) (A) (A) (A) (A) (A) (A)
                 (A) (A) (A) (A) (A) (A) (A) (A) (A) (A) (A) (A)
                 (A) (A) (A) (A) (A) (A) (A) (A) (A) (A) (A) (A)
                 (A) (A) (A) (A) (A) (A) (A) (A) (A) (A) (A) (A)
                 (A) (A) (A) (A) (A) (A) (A) (A) (A) (A) (A) (A)
                 (A) (A) (A) (A) (A) (A) (A) (A) (A) (A) (A) (A)
                 (A) (A) (A) (A) (A) (A) (A) (A) (A) (A) (A) (A)
                 (A) (A) (A) (A) (A) (A) (A) (A) (A) (A) (A) (A)
                 (A) (A) (A) (A) (A) (A) (A) (A) (A) (A) (A) (A)
                 (A) (A)
 The electronic state is 1-A.
 Alpha  occ. eigenvalues --  -10.20670 -10.20602 -10.20307 -10.20280 -10.20167
 Alpha  occ. eigenvalues --  -10.19569 -10.19529 -10.19525 -10.19478 -10.19475
 Alpha  occ. eigenvalues --  -10.19434 -10.19422 -10.19218 -10.19191  -0.88934
 Alpha  occ. eigenvalues --   -0.85901  -0.80875  -0.79269  -0.75873  -0.74638
 Alpha  occ. eigenvalues --   -0.70935  -0.65321  -0.62268  -0.60774  -0.59511
 Alpha  occ. eigenvalues --   -0.54738  -0.52700  -0.50961  -0.47108  -0.46660
 Alpha  occ. eigenvalues --   -0.46013  -0.45228  -0.42693  -0.42096  -0.41214
 Alpha  occ. eigenvalues --   -0.40874  -0.39615  -0.38468  -0.37043  -0.35041
 Alpha  occ. eigenvalues --   -0.34137  -0.33473  -0.31147  -0.30753  -0.26513
 Alpha  occ. eigenvalues --   -0.24851  -0.20261
 Alpha virt. eigenvalues --   -0.07717  -0.02728  -0.00899  -0.00853  -0.00327
 Alpha virt. eigenvalues --   -0.00103   0.00312   0.01343   0.01452   0.03083
 Alpha virt. eigenvalues --    0.03264   0.03791   0.04322   0.05125   0.05283
 Alpha virt. eigenvalues --    0.05533   0.05700   0.05867   0.06092   0.07687
 Alpha virt. eigenvalues --    0.08289   0.08615   0.08708   0.08796   0.09043
 Alpha virt. eigenvalues --    0.09204   0.09639   0.09925   0.10673   0.10892
 Alpha virt. eigenvalues --    0.11004   0.11306   0.11365   0.11906   0.12134
 Alpha virt. eigenvalues --    0.12273   0.12429   0.12535   0.13526   0.14404
 Alpha virt. eigenvalues --    0.14827   0.14918   0.15546   0.16555   0.17085
 Alpha virt. eigenvalues --    0.17159   0.17433   0.17863   0.18310   0.18759
 Alpha virt. eigenvalues --    0.18920   0.19330   0.20019   0.20620   0.20993
 Alpha virt. eigenvalues --    0.21600   0.21732   0.22147   0.22371   0.22687
 Alpha virt. eigenvalues --    0.23133   0.23721   0.24292   0.24805   0.25009
 Alpha virt. eigenvalues --    0.25096   0.25524   0.25852   0.26016   0.26544
 Alpha virt. eigenvalues --    0.26777   0.26983   0.27291   0.27512   0.28587
 Alpha virt. eigenvalues --    0.28849   0.28963   0.29253   0.29383   0.29693
 Alpha virt. eigenvalues --    0.29742   0.30232   0.30630   0.30956   0.31365
 Alpha virt. eigenvalues --    0.32285   0.32686   0.32880   0.33772   0.34292
 Alpha virt. eigenvalues --    0.34489   0.34901   0.35143   0.35640   0.36542
 Alpha virt. eigenvalues --    0.36878   0.37188   0.37522   0.38645   0.39537
 Alpha virt. eigenvalues --    0.41695   0.41952   0.42403   0.42602   0.43052
 Alpha virt. eigenvalues --    0.43473   0.43814   0.44343   0.44941   0.45121
 Alpha virt. eigenvalues --    0.45816   0.47093   0.47707   0.48344   0.48789
 Alpha virt. eigenvalues --    0.49706   0.50236   0.50830   0.51166   0.52766
 Alpha virt. eigenvalues --    0.53047   0.53259   0.53535   0.53741   0.54305
 Alpha virt. eigenvalues --    0.55256   0.55440   0.55620   0.55909   0.56189
 Alpha virt. eigenvalues --    0.56883   0.56979   0.58122   0.58588   0.58644
 Alpha virt. eigenvalues --    0.59609   0.59904   0.60015   0.60332   0.60436
 Alpha virt. eigenvalues --    0.60862   0.61985   0.62369   0.63096   0.63225
 Alpha virt. eigenvalues --    0.64203   0.64288   0.64903   0.65018   0.65303
 Alpha virt. eigenvalues --    0.65928   0.66209   0.66608   0.67034   0.67432
 Alpha virt. eigenvalues --    0.68426   0.69144   0.69742   0.72392   0.72880
 Alpha virt. eigenvalues --    0.73724   0.73949   0.74200   0.74329   0.74698
 Alpha virt. eigenvalues --    0.75018   0.75776   0.76234   0.76614   0.76727
 Alpha virt. eigenvalues --    0.77087   0.77351   0.78067   0.78735   0.78811
 Alpha virt. eigenvalues --    0.79210   0.79427   0.80136   0.80530   0.80949
 Alpha virt. eigenvalues --    0.83472   0.83648   0.84407   0.84810   0.85588
 Alpha virt. eigenvalues --    0.86957   0.87066   0.87727   0.89852   0.92441
 Alpha virt. eigenvalues --    0.93501   0.94211   0.94324   0.94908   0.96881
 Alpha virt. eigenvalues --    0.99555   1.00257   1.02102   1.03580   1.04905
 Alpha virt. eigenvalues --    1.05648   1.06574   1.08367   1.09382   1.10384
 Alpha virt. eigenvalues --    1.11943   1.14194   1.14374   1.17803   1.18773
 Alpha virt. eigenvalues --    1.23908   1.24150   1.25054   1.25632   1.26352
 Alpha virt. eigenvalues --    1.27620   1.28665   1.29304   1.29927   1.30366
 Alpha virt. eigenvalues --    1.31138   1.32841   1.33107   1.35144   1.35362
 Alpha virt. eigenvalues --    1.36264   1.37631   1.37926   1.38554   1.39227
 Alpha virt. eigenvalues --    1.40689   1.41077   1.41706   1.42096   1.42431
 Alpha virt. eigenvalues --    1.44323   1.46002   1.47436   1.47726   1.48235
 Alpha virt. eigenvalues --    1.49335   1.49778   1.50774   1.51442   1.52368
 Alpha virt. eigenvalues --    1.53095   1.53870   1.55008   1.55695   1.55942
 Alpha virt. eigenvalues --    1.57142   1.57747   1.58252   1.58684   1.59177
 Alpha virt. eigenvalues --    1.61484   1.63341   1.63491   1.64134   1.65168
 Alpha virt. eigenvalues --    1.66546   1.67036   1.67687   1.69179   1.69296
 Alpha virt. eigenvalues --    1.69746   1.71008   1.71578   1.72233   1.74218
 Alpha virt. eigenvalues --    1.75012   1.76245   1.76702   1.77275   1.78727
 Alpha virt. eigenvalues --    1.80673   1.81249   1.81323   1.82700   1.83612
 Alpha virt. eigenvalues --    1.84051   1.85341   1.86166   1.86548   1.87072
 Alpha virt. eigenvalues --    1.89043   1.90801   1.91065   1.92419   1.92754
 Alpha virt. eigenvalues --    1.93095   1.93754   1.96233   1.97124   1.98530
 Alpha virt. eigenvalues --    1.99706   2.00021   2.01487   2.02502   2.02779
 Alpha virt. eigenvalues --    2.03968   2.05280   2.06392   2.07439   2.08017
 Alpha virt. eigenvalues --    2.08060   2.10936   2.11931   2.12139   2.12594
 Alpha virt. eigenvalues --    2.13001   2.14363   2.15765   2.16372   2.17068
 Alpha virt. eigenvalues --    2.18075   2.20029   2.21499   2.23854   2.24317
 Alpha virt. eigenvalues --    2.28619   2.31178   2.33091   2.34021   2.37812
 Alpha virt. eigenvalues --    2.40528   2.42653   2.46529   2.47164   2.48869
 Alpha virt. eigenvalues --    2.49564   2.50117   2.52289   2.56646   2.59101
 Alpha virt. eigenvalues --    2.61571   2.62041   2.64540   2.66570   2.68219
 Alpha virt. eigenvalues --    2.75387   2.77164   2.80637   2.83678   2.84634
 Alpha virt. eigenvalues --    2.87274   2.89610   2.94105   2.94581   3.02856
 Alpha virt. eigenvalues --    3.08376   3.15861   3.24291   3.36184   3.37377
 Alpha virt. eigenvalues --    3.40660   3.42761   3.50255   3.55993   4.03145
 Alpha virt. eigenvalues --    4.39117   4.46604
          Condensed to atoms (all electrons):
               1          2          3          4          5          6
     1  C   37.202834  -8.619746  -8.589471  -0.465075  -5.896564  -0.454941
     2  C   -8.619746  33.542571   0.848171  -8.702437  -0.466834  -1.691458
     3  C   -8.589471   0.848171  33.352315  -1.598390  -0.337799  -9.326933
     4  C   -0.465075  -8.702437  -1.598390  32.013311  -6.189666   0.517628
     5  C   -5.896564  -0.466834  -0.337799  -6.189666  29.625004  -5.979361
     6  C   -0.454941  -1.691458  -9.326933   0.517628  -5.979361  31.891359
     7  C    3.200339   0.580821 -10.063263  -1.014957  -3.763168   0.937786
     8  C   -3.115763  -0.326929   3.984663  -0.183874   1.705584  -4.689829
     9  C    2.045466  -0.103036  -4.892497  -0.300002  -2.528861   3.398656
    10  C   -3.961259  -1.528428   0.701088  -0.269003   3.377979  -9.286443
    11  C    3.649989 -10.039573   0.301647   0.703085  -3.830286  -0.866039
    12  C   -3.228967   4.216743  -0.339297  -5.102058   1.783976  -0.163930
    13  C    2.183788  -5.468873  -0.143317   3.285596  -2.762186  -0.291121
    14  C   -4.249064   0.592813  -1.218911  -9.198114   3.236169  -0.373335
    15  H   -0.249815   1.856811  -0.181522  -0.316647   0.050776   0.037306
    16  H    0.035651  -0.173860  -0.016245   0.065194  -0.016983   0.008897
    17  H   -0.008657   0.041148   0.011280  -0.221431   0.066772  -0.020522
    18  H    0.073291  -0.134657   0.035299   1.732129  -0.243871  -0.130549
    19  H   -3.822240   1.032466   0.987476  -0.454359   0.152913  -0.507709
    20  H    0.068253   0.035517  -0.127407  -0.103629  -0.214680   1.819391
    21  H   -0.002150   0.014186   0.027428  -0.021980   0.054209  -0.248144
    22  H   -0.205555  -0.155461   1.873350   0.024804   0.038126  -0.304003
    23  H    0.024538  -0.019064  -0.126429   0.015569  -0.012605   0.045103
    24  H    0.140918  -0.387827  -0.311298   0.689860  -2.790720   0.661773
               7          8          9         10         11         12
     1  C    3.200339  -3.115763   2.045466  -3.961259   3.649989  -3.228967
     2  C    0.580821  -0.326929  -0.103036  -1.528428 -10.039573   4.216743
     3  C  -10.063263   3.984663  -4.892497   0.701088   0.301647  -0.339297
     4  C   -1.014957  -0.183874  -0.300002  -0.269003   0.703085  -5.102058
     5  C   -3.763168   1.705584  -2.528861   3.377979  -3.830286   1.783976
     6  C    0.937786  -4.689829   3.398656  -9.286443  -0.866039  -0.163930
     7  C   29.439346  -9.603161   6.834175 -10.305607   1.215430   0.394875
     8  C   -9.603161  16.978980  -5.971968   7.047598   0.402538  -0.054821
     9  C    6.834175  -5.971968  17.075397  -9.591708  -0.191283   0.101601
    10  C  -10.305607   7.047598  -9.591708  30.290296  -0.782134  -0.168969
    11  C    1.215430   0.402538  -0.191283  -0.782134  29.684171  -9.864764
    12  C    0.394875  -0.054821   0.101601  -0.168969  -9.864764  17.554096
    13  C   -0.169995   0.097209  -0.072188   0.399209   6.948638  -6.101261
    14  C   -0.811234  -0.169958   0.407458   1.279136 -10.402569   7.030770
    15  H   -0.027967   0.011651  -0.011218   0.010575  -3.402298   1.342887
    16  H    0.004112  -0.002715   0.002715  -0.004134   1.075747  -1.945641
    17  H   -0.003385   0.002738  -0.003472   0.003149  -0.404780   0.716304
    18  H    0.015554  -0.010718   0.011366  -0.048410   0.368551  -0.414354
    19  H    0.658855   0.152314   0.055124  -0.149287   0.602012   0.130388
    20  H    0.379123  -0.431035   1.152736  -3.453870   0.014671  -0.011254
    21  H   -0.373852   0.735097  -2.010198   1.261969  -0.002076   0.002856
    22  H   -3.381962   1.255854  -0.408106   0.348276  -0.013467   0.016067
    23  H    1.027507  -1.937376   0.753511  -0.343839   0.000671  -0.002769
    24  H   -0.137148   0.057744   0.081060   0.503875  -0.146515   0.057595
              13         14         15         16         17         18
     1  C    2.183788  -4.249064  -0.249815   0.035651  -0.008657   0.073291
     2  C   -5.468873   0.592813   1.856811  -0.173860   0.041148  -0.134657
     3  C   -0.143317  -1.218911  -0.181522  -0.016245   0.011280   0.035299
     4  C    3.285596  -9.198114  -0.316647   0.065194  -0.221431   1.732129
     5  C   -2.762186   3.236169   0.050776  -0.016983   0.066772  -0.243871
     6  C   -0.291121  -0.373335   0.037306   0.008897  -0.020522  -0.130549
     7  C   -0.169995  -0.811234  -0.027967   0.004112  -0.003385   0.015554
     8  C    0.097209  -0.169958   0.011651  -0.002715   0.002738  -0.010718
     9  C   -0.072188   0.407458  -0.011218   0.002715  -0.003472   0.011366
    10  C    0.399209   1.279136   0.010575  -0.004134   0.003149  -0.048410
    11  C    6.948638 -10.402569  -3.402298   1.075747  -0.404780   0.368551
    12  C   -6.101261   7.030770   1.342887  -1.945641   0.716304  -0.414354
    13  C   17.978239  -9.658494  -0.410325   0.761834  -2.067212   1.211738
    14  C   -9.658494  30.574056   0.366821  -0.369106   1.318349  -3.347360
    15  H   -0.410325   0.366821   3.353227  -0.195574  -0.028336   0.014143
    16  H    0.761834  -0.369106  -0.195574   2.730417  -0.162285  -0.026700
    17  H   -2.067212   1.318349  -0.028336  -0.162285   2.765807  -0.222193
    18  H    1.211738  -3.347360   0.014143  -0.026700  -0.222193   3.275441
    19  H    0.054712  -0.133628  -0.259081   0.014359  -0.001704   0.003242
    20  H    0.013107  -0.045860  -0.000362  -0.000072  -0.000333   0.009831
    21  H   -0.003568  -0.000089  -0.000046   0.000066  -0.000075  -0.000318
    22  H   -0.011720   0.003606   0.014438  -0.000315  -0.000102  -0.000262
    23  H    0.002548  -0.002021  -0.000426  -0.000051   0.000069  -0.000090
    24  H    0.108964   0.569242   0.000207  -0.001217   0.010924  -0.212970
              19         20         21         22         23         24
     1  C   -3.822240   0.068253  -0.002150  -0.205555   0.024538   0.140918
     2  C    1.032466   0.035517   0.014186  -0.155461  -0.019064  -0.387827
     3  C    0.987476  -0.127407   0.027428   1.873350  -0.126429  -0.311298
     4  C   -0.454359  -0.103629  -0.021980   0.024804   0.015569   0.689860
     5  C    0.152913  -0.214680   0.054209   0.038126  -0.012605  -2.790720
     6  C   -0.507709   1.819391  -0.248144  -0.304003   0.045103   0.661773
     7  C    0.658855   0.379123  -0.373852  -3.381962   1.027507  -0.137148
     8  C    0.152314  -0.431035   0.735097   1.255854  -1.937376   0.057744
     9  C    0.055124   1.152736  -2.010198  -0.408106   0.753511   0.081060
    10  C   -0.149287  -3.453870   1.261969   0.348276  -0.343839   0.503875
    11  C    0.602012   0.014671  -0.002076  -0.013467   0.000671  -0.146515
    12  C    0.130388  -0.011254   0.002856   0.016067  -0.002769   0.057595
    13  C    0.054712   0.013107  -0.003568  -0.011720   0.002548   0.108964
    14  C   -0.133628  -0.045860  -0.000089   0.003606  -0.002021   0.569242
    15  H   -0.259081  -0.000362  -0.000046   0.014438  -0.000426   0.000207
    16  H    0.014359  -0.000072   0.000066  -0.000315  -0.000051  -0.001217
    17  H   -0.001704  -0.000333  -0.000075  -0.000102   0.000069   0.010924
    18  H    0.003242   0.009831  -0.000318  -0.000262  -0.000090  -0.212970
    19  H    3.830226   0.002801  -0.002026  -0.263307   0.014697   0.011487
    20  H    0.002801   3.295209  -0.240261   0.014287  -0.025924  -0.186609
    21  H   -0.002026  -0.240261   2.777980  -0.026603  -0.159010   0.010428
    22  H   -0.263307   0.014287  -0.026603   3.353507  -0.194055  -0.000453
    23  H    0.014697  -0.025924  -0.159010  -0.194055   2.722511  -0.000740
    24  H    0.011487  -0.186609   0.010428  -0.000453  -0.000740   3.253339
 Mulliken charges:
               1
     1  C    0.244200
     2  C    1.056933
     3  C    1.150063
     4  C    1.094447
     5  C    0.942076
     6  C    1.016418
     7  C    0.967779
     8  C    0.066176
     9  C    0.165269
    10  C    0.669943
    11  C    0.978636
    12  C    0.049927
    13  C    0.114678
    14  C    0.601325
    15  H   -0.975224
    16  H   -0.784094
    17  H   -0.792052
    18  H   -0.958131
    19  H   -1.109731
    20  H   -0.963629
    21  H   -0.793824
    22  H   -0.976943
    23  H   -0.782322
    24  H   -0.981918
 Sum of Mulliken charges =  -0.00000
 Mulliken charges with hydrogens summed into heavy atoms:
               1
     1  C   -0.865532
     2  C    1.056933
     3  C    1.150063
     4  C    1.094447
     5  C   -0.039842
     6  C    1.016418
     7  C   -0.009164
     8  C   -0.716147
     9  C   -0.628555
    10  C   -0.293686
    11  C    0.003411
    12  C   -0.734167
    13  C   -0.677373
    14  C   -0.356806
 Electronic spatial extent (au):  <R**2>=           2833.9233
 Charge=              0.0000 electrons
 Dipole moment (field-independent basis, Debye):
    X=             -0.0098    Y=             -0.0779    Z=              0.4279  Tot=              0.4351
 Quadrupole moment (field-independent basis, Debye-Ang):
   XX=            -73.4666   YY=            -72.7091   ZZ=            -88.2238
   XY=             -0.0784   XZ=              0.0894   YZ=              0.2901
 Traceless Quadrupole moment (field-independent basis, Debye-Ang):
   XX=              4.6665   YY=              5.4241   ZZ=            -10.0906
   XY=             -0.0784   XZ=              0.0894   YZ=              0.2901
 Octapole moment (field-independent basis, Debye-Ang**2):
  XXX=              0.0431  YYY=             -0.2655  ZZZ=              0.4203  XYY=             -0.1128
  XXY=             -1.0786  XXZ=             13.6233  XZZ=              0.0105  YZZ=              0.0171
  YYZ=              0.5668  XYZ=              1.3023
 Hexadecapole moment (field-independent basis, Debye-Ang**3):
 XXXX=          -2869.1086 YYYY=           -713.4943 ZZZZ=           -128.0698 XXXY=             -1.7707
 XXXZ=             -0.1087 YYYX=             -0.5384 YYYZ=              1.5368 ZZZX=              0.2235
 ZZZY=              0.5785 XXYY=           -609.9760 XXZZ=           -599.7254 YYZZ=           -167.1681
 XXYZ=              3.7320 YYXZ=              0.9938 ZZXY=              0.5844
 N-N= 7.664648408551D+02 E-N=-2.783129092221D+03  KE= 5.362998146201D+02
 1\1\GINC-C3CPU-C11-U1-1\SP\RB3LYP TD-FC\Aug-CC-pVDZ\C14H10\SILE6618\11
 -Apr-2024\0\\# B3LYP/aug-cc-pVDZ TD(NStates=10)\\TD-DFT excited state 
 calculation: B3LYP/aug-cc-pVDZ\\0,1\C,0,10.70051,5.44882,23.71103\C,0,
 9.86535,6.36033,23.06568\C,0,11.92708,5.09157,23.15315\C,0,10.20494,6.
 81277,21.73154\C,0,11.36552,6.33847,21.05453\C,0,12.28918,5.58033,21.8
 3391\C,0,12.86133,4.31545,23.9032\C,0,14.13694,4.09733,23.44877\C,0,14
 .53031,4.64821,22.20398\C,0,13.6257,5.33579,21.43452\C,0,8.71898,6.895
 15,23.72297\C,0,7.97054,7.8934,23.15017\C,0,8.32225,8.3755,21.86646\C,
 0,9.37377,7.81691,21.18403\H,0,8.47903,6.52006,24.71974\H,0,7.118,8.32
 084,23.67852\H,0,7.74314,9.17777,21.40694\H,0,9.62716,8.17517,20.18813
 \H,0,10.4301,5.07732,24.70245\H,0,13.95536,5.76717,20.4966\H,0,15.5537
 1,4.52044,21.84723\H,0,12.54422,3.93771,24.87737\H,0,14.8505,3.52914,2
 4.04618\H,0,11.6372,6.71833,20.07691\\Version=ES64L-G16RevA.03\State=1
 -A\HF=-539.5768939\RMSD=5.027e-09\PG=C01 [X(C14H10)]\\@


 Once you get people laughing, they're
 listening and you can tell them almost anything.
                                 -- Herb Gardner
 Job cpu time:       0 days  0 hours 46 minutes 56.5 seconds.
 Elapsed time:       0 days  0 hours 47 minutes  8.6 seconds.
 File lengths (MBytes):  RWF=   1328 Int=      0 D2E=      0 Chk=     72 Scr=     16
 Normal termination of Gaussian 16 at Thu Apr 11 18:20:44 2024.
