 Entering Gaussian System, Link 0=g16
 Initial command:
 /curc/sw/gaussian/16/g16/l1.exe "/gpfs/alpine1/scratch/sile6618/Gaussian/anthracene_bend/CAM-B3LYP/cc-pVDZ_basis/Gau-3142790.inp" -scrdir="/gpfs/alpine1/scratch/sile6618/Gaussian/anthracene_bend/CAM-B3LYP/cc-pVDZ_basis/"
 Entering Link 1 = /curc/sw/gaussian/16/g16/l1.exe PID=   3142791.
  
 Copyright (c) 1988,1990,1992,1993,1995,1998,2003,2009,2016,
            Gaussian, Inc.  All Rights Reserved.
  
 This is part of the Gaussian(R) 16 program.  It is based on
 the Gaussian(R) 09 system (copyright 2009, Gaussian, Inc.),
 the Gaussian(R) 03 system (copyright 2003, Gaussian, Inc.),
 the Gaussian(R) 98 system (copyright 1998, Gaussian, Inc.),
 the Gaussian(R) 94 system (copyright 1995, Gaussian, Inc.),
 the Gaussian 92(TM) system (copyright 1992, Gaussian, Inc.),
 the Gaussian 90(TM) system (copyright 1990, Gaussian, Inc.),
 the Gaussian 88(TM) system (copyright 1988, Gaussian, Inc.),
 the Gaussian 86(TM) system (copyright 1986, Carnegie Mellon
 University), and the Gaussian 82(TM) system (copyright 1983,
 Carnegie Mellon University). Gaussian is a federally registered
 trademark of Gaussian, Inc.
  
 This software contains proprietary and confidential information,
 including trade secrets, belonging to Gaussian, Inc.
  
 This software is provided under written license and may be
 used, copied, transmitted, or stored only in accord with that
 written license.
  
 The following legend is applicable only to US Government
 contracts under FAR:
  
                    RESTRICTED RIGHTS LEGEND
  
 Use, reproduction and disclosure by the US Government is
 subject to restrictions as set forth in subparagraphs (a)
 and (c) of the Commercial Computer Software - Restricted
 Rights clause in FAR 52.227-19.
  
 Gaussian, Inc.
 340 Quinnipiac St., Bldg. 40, Wallingford CT 06492
  
  
 ---------------------------------------------------------------
 Warning -- This program may not be used in any manner that
 competes with the business of Gaussian, Inc. or will provide
 assistance to any competitor of Gaussian, Inc.  The licensee
 of this program is prohibited from giving any competitor of
 Gaussian, Inc. access to this program.  By using this program,
 the user acknowledges that Gaussian, Inc. is engaged in the
 business of creating and licensing software in the field of
 computational chemistry and represents and warrants to the
 licensee that it is not a competitor of Gaussian, Inc. and that
 it will not use this program in any manner prohibited above.
 ---------------------------------------------------------------
  

 Cite this work as:
 Gaussian 16, Revision A.03,
 M. J. Frisch, G. W. Trucks, H. B. Schlegel, G. E. Scuseria, 
 M. A. Robb, J. R. Cheeseman, G. Scalmani, V. Barone, 
 G. A. Petersson, H. Nakatsuji, X. Li, M. Caricato, A. V. Marenich, 
 J. Bloino, B. G. Janesko, R. Gomperts, B. Mennucci, H. P. Hratchian, 
 J. V. Ortiz, A. F. Izmaylov, J. L. Sonnenberg, D. Williams-Young, 
 F. Ding, F. Lipparini, F. Egidi, J. Goings, B. Peng, A. Petrone, 
 T. Henderson, D. Ranasinghe, V. G. Zakrzewski, J. Gao, N. Rega, 
 G. Zheng, W. Liang, M. Hada, M. Ehara, K. Toyota, R. Fukuda, 
 J. Hasegawa, M. Ishida, T. Nakajima, Y. Honda, O. Kitao, H. Nakai, 
 T. Vreven, K. Throssell, J. A. Montgomery, Jr., J. E. Peralta, 
 F. Ogliaro, M. J. Bearpark, J. J. Heyd, E. N. Brothers, K. N. Kudin, 
 V. N. Staroverov, T. A. Keith, R. Kobayashi, J. Normand, 
 K. Raghavachari, A. P. Rendell, J. C. Burant, S. S. Iyengar, 
 J. Tomasi, M. Cossi, J. M. Millam, M. Klene, C. Adamo, R. Cammi, 
 J. W. Ochterski, R. L. Martin, K. Morokuma, O. Farkas, 
 J. B. Foresman, and D. J. Fox, Gaussian, Inc., Wallingford CT, 2016.
 
 ******************************************
 Gaussian 16:  ES64L-G16RevA.03 25-Dec-2016
                 3-May-2024 
 ******************************************
 %Chk=tddft
 ----------------------------------------------
 #p CAM-B3LYP/aug-cc-pVDZ TD(NStates=20,Root=0)
 ----------------------------------------------
 1/38=1,172=1/1;
 2/12=2,17=6,18=5,40=1/2;
 3/5=16,7=10,11=9,25=1,30=1,74=-40/1,2,3,8;
 4//1;
 5/5=2,38=5/2;
 8/6=1,10=1,108=20/1;
 9/41=20,42=1,70=2/14;
 6/7=2,8=2,9=2,10=2/1;
 99/5=1,9=1/99;
 Leave Link    1 at Fri May  3 16:02:05 2024, MaxMem=           0 cpu:               0.0 elap:               0.2
 (Enter /curc/sw/gaussian/16/g16/l101.exe)
 -------------------------------------------------------
 TD-DFT excited state calculation: CAM-B3LYP/aug-cc-pVDZ
 -------------------------------------------------------
 Symbolic Z-matrix:
 Charge =  0 Multiplicity = 1
 C                     10.70051   5.44882   23.71103 
 C                     9.86535   6.36033   23.06568 
 C                     11.92708   5.09157   23.15315 
 C                     10.20494   6.81277   21.73154 
 C                     11.36552   6.33847   21.05453 
 C                     12.28918   5.58033   21.83391 
 C                     12.86133   4.31545   23.9032 
 C                     14.13694   4.09733   23.44877 
 C                     14.53031   4.64821   22.20398 
 C                     13.6257   5.33579   21.43452 
 C                     8.71898   6.89515   23.72297 
 C                     7.97054   7.8934    23.15017 
 C                     8.32225   8.3755    21.86646 
 C                     9.37377   7.81691   21.18403 
 H                     8.47903   6.52006   24.71974 
 H                     7.118     8.32084   23.67852 
 H                     7.74314   9.17777   21.40694 
 H                     9.62716   8.17517   20.18813 
 H                     10.4301   5.07732   24.70245 
 H                     13.95536   5.76717   20.4966 
 H                     15.55371   4.52044   21.84723 
 H                     12.54422   3.93771   24.87737 
 H                     14.8505   3.52914   24.04618 
 H                     11.6372   6.71833   20.07691 
 
 ITRead=  0  0  0  0  0  0  0  0  0  0  0  0  0  0  0  0  0  0  0  0
 ITRead=  0  0  0  0
 MicOpt= -1 -1 -1 -1 -1 -1 -1 -1 -1 -1 -1 -1 -1 -1 -1 -1 -1 -1 -1 -1
 MicOpt= -1 -1 -1 -1
 NAtoms=     24 NQM=       24 NQMF=       0 NMMI=      0 NMMIF=      0
                NMic=       0 NMicF=      0.
                    Isotopes and Nuclear Properties:
 (Nuclear quadrupole moments (NQMom) in fm**2, nuclear magnetic moments (NMagM)
  in nuclear magnetons)

  Atom         1           2           3           4           5           6           7           8           9          10
 IAtWgt=          12          12          12          12          12          12          12          12          12          12
 AtmWgt=  12.0000000  12.0000000  12.0000000  12.0000000  12.0000000  12.0000000  12.0000000  12.0000000  12.0000000  12.0000000
 NucSpn=           0           0           0           0           0           0           0           0           0           0
 AtZEff=  -0.0000000  -0.0000000  -0.0000000  -0.0000000  -0.0000000  -0.0000000  -0.0000000  -0.0000000  -0.0000000  -0.0000000
 NQMom=    0.0000000   0.0000000   0.0000000   0.0000000   0.0000000   0.0000000   0.0000000   0.0000000   0.0000000   0.0000000
 NMagM=    0.0000000   0.0000000   0.0000000   0.0000000   0.0000000   0.0000000   0.0000000   0.0000000   0.0000000   0.0000000
 AtZNuc=   6.0000000   6.0000000   6.0000000   6.0000000   6.0000000   6.0000000   6.0000000   6.0000000   6.0000000   6.0000000

  Atom        11          12          13          14          15          16          17          18          19          20
 IAtWgt=          12          12          12          12           1           1           1           1           1           1
 AtmWgt=  12.0000000  12.0000000  12.0000000  12.0000000   1.0078250   1.0078250   1.0078250   1.0078250   1.0078250   1.0078250
 NucSpn=           0           0           0           0           1           1           1           1           1           1
 AtZEff=  -0.0000000  -0.0000000  -0.0000000  -0.0000000  -0.0000000  -0.0000000  -0.0000000  -0.0000000  -0.0000000  -0.0000000
 NQMom=    0.0000000   0.0000000   0.0000000   0.0000000   0.0000000   0.0000000   0.0000000   0.0000000   0.0000000   0.0000000
 NMagM=    0.0000000   0.0000000   0.0000000   0.0000000   2.7928460   2.7928460   2.7928460   2.7928460   2.7928460   2.7928460
 AtZNuc=   6.0000000   6.0000000   6.0000000   6.0000000   1.0000000   1.0000000   1.0000000   1.0000000   1.0000000   1.0000000

  Atom        21          22          23          24
 IAtWgt=           1           1           1           1
 AtmWgt=   1.0078250   1.0078250   1.0078250   1.0078250
 NucSpn=           1           1           1           1
 AtZEff=  -0.0000000  -0.0000000  -0.0000000  -0.0000000
 NQMom=    0.0000000   0.0000000   0.0000000   0.0000000
 NMagM=    2.7928460   2.7928460   2.7928460   2.7928460
 AtZNuc=   1.0000000   1.0000000   1.0000000   1.0000000
 Leave Link  101 at Fri May  3 16:02:06 2024, MaxMem=   104857600 cpu:               0.0 elap:               0.2
 (Enter /curc/sw/gaussian/16/g16/l202.exe)
                          Input orientation:                          
 ---------------------------------------------------------------------
 Center     Atomic      Atomic             Coordinates (Angstroms)
 Number     Number       Type             X           Y           Z
 ---------------------------------------------------------------------
      1          6           0       10.700510    5.448820   23.711030
      2          6           0        9.865350    6.360330   23.065680
      3          6           0       11.927080    5.091570   23.153150
      4          6           0       10.204940    6.812770   21.731540
      5          6           0       11.365520    6.338470   21.054530
      6          6           0       12.289180    5.580330   21.833910
      7          6           0       12.861330    4.315450   23.903200
      8          6           0       14.136940    4.097330   23.448770
      9          6           0       14.530310    4.648210   22.203980
     10          6           0       13.625700    5.335790   21.434520
     11          6           0        8.718980    6.895150   23.722970
     12          6           0        7.970540    7.893400   23.150170
     13          6           0        8.322250    8.375500   21.866460
     14          6           0        9.373770    7.816910   21.184030
     15          1           0        8.479030    6.520060   24.719740
     16          1           0        7.118000    8.320840   23.678520
     17          1           0        7.743140    9.177770   21.406940
     18          1           0        9.627160    8.175170   20.188130
     19          1           0       10.430100    5.077320   24.702450
     20          1           0       13.955360    5.767170   20.496600
     21          1           0       15.553710    4.520440   21.847230
     22          1           0       12.544220    3.937710   24.877370
     23          1           0       14.850500    3.529140   24.046180
     24          1           0       11.637200    6.718330   20.076910
 ---------------------------------------------------------------------
                    Distance matrix (angstroms):
                    1          2          3          4          5
     1  C    0.000000
     2  C    1.394568   0.000000
     3  C    1.394034   2.422423   0.000000
     4  C    2.454451   1.449121   2.819445   0.000000
     5  C    2.879359   2.509126   2.504858   1.424868   0.000000
     6  C    2.462671   2.828535   1.452721   2.423519   1.426659
     7  C    2.447570   3.722750   1.427501   4.243716   3.800655
     8  C    3.701940   4.849166   2.441185   5.077708   4.293700
     9  C    4.192797   5.043385   2.806118   4.859768   3.767507
    10  C    3.708370   4.224997   2.428712   3.737819   2.501634
    11  C    2.453258   1.425562   3.724178   2.486093   3.799294
    12  C    3.707192   2.438800   4.848141   2.858814   4.281986
    13  C    4.198097   2.807169   5.043269   2.450480   3.751028
    14  C    3.708614   2.429791   4.221884   1.413827   2.483873
    15  H    2.664587   2.164096   4.047695   3.463204   4.668893
    16  H    4.591724   3.430321   5.816481   3.948950   5.371828
    17  H    5.287716   3.897841   6.103412   3.429147   4.616000
    18  H    4.582127   3.410377   4.856909   2.138242   2.673202
    19  H    1.092725   2.155011   2.154410   3.448012   3.971502
    20  H    4.585625   4.866230   3.409929   4.084606   2.710155
    21  H    5.281022   6.101414   3.896673   5.820438   4.634063
    22  H    2.653878   4.040749   2.164530   4.861527   4.665521
    23  H    4.584748   5.816248   3.432940   6.141743   5.383994
    24  H    3.961802   3.492902   3.491938   2.190454   1.083441
                    6          7          8          9         10
     6  C    0.000000
     7  C    2.491834   0.000000
     8  C    2.867277   1.371592   0.000000
     9  C    2.455293   2.404906   1.416937   0.000000
    10  C    1.416191   2.778441   2.419164   1.372281   0.000000
    11  C    4.247779   4.883277   6.103874   6.413082   5.634226
    12  C    5.072818   6.106440   7.247330   7.379506   6.439383
    13  C    4.852893   6.421492   7.390336   7.248905   6.128050
    14  C    3.731521   5.640672   6.453845   6.137659   4.929261
    15  H    4.871175   4.973087   6.284658   6.815487   6.219596
    16  H    6.136292   7.005674   8.194897   8.402667   7.503081
    17  H    5.812947   7.487946   8.417875   8.198650   7.026100
    18  H    4.065481   6.257718   6.899179   6.367415   5.060029
    19  H    3.455100   2.670230   4.033951   4.820603   4.577994
    20  H    2.144636   3.861258   3.396564   2.120798   1.083724
    21  H    3.432302   3.393810   2.179722   1.091303   2.133623
    22  H    3.467837   1.091904   2.145491   3.405345   3.870070
    23  H    3.957509   2.143717   1.090370   2.179115   3.403658
    24  H    2.192526   4.681113   4.948513   4.144865   2.776446
                   11         12         13         14         15
    11  C    0.000000
    12  C    1.372868   0.000000
    13  C    2.407376   1.415638   0.000000
    14  C    2.779318   2.416736   1.372380   0.000000
    15  H    1.091705   2.146666   3.407117   3.870869   0.000000
    16  H    2.144226   1.090267   2.176412   3.400724   2.485830
    17  H    3.395087   2.177193   1.090946   2.135552   4.310406
    18  H    3.867601   3.405505   2.135349   1.088289   4.959141
    19  H    2.681757   4.048372   4.833618   4.582627   2.426617
    20  H    6.253117   6.883339   6.357030   5.066060   6.956432
    21  H    7.474703   8.401130   8.194869   7.035496   7.893091
    22  H    4.971071   6.288820   6.825290   6.224203   4.818625
    23  H    7.002144   8.196551   8.417626   7.521399   7.070708
    24  H    4.673438   4.926471   4.115531   2.748765   5.618649
                   16         17         18         19         20
    16  H    0.000000
    17  H    2.507031   0.000000
    18  H    4.301154   2.457689   0.000000
    19  H    4.747511   5.907100   5.533577   0.000000
    20  H    7.962119   7.145109   4.962553   5.531051   0.000000
    21  H    9.431748   9.104372   7.157769   5.891840   2.435828
    22  H    7.077636   7.909013   6.960911   2.408072   4.952715
    23  H    9.104236   9.454479   7.984574   4.729428   4.290638
    24  H    5.996899   4.793905   2.484957   5.054268   2.540612
                   21         22         23         24
    21  H    0.000000
    22  H    4.310261   0.000000
    23  H    2.512481   2.485304   0.000000
    24  H    4.827401   5.621294   6.020908   0.000000
 Stoichiometry    C14H10
 Framework group  C1[X(C14H10)]
 Deg. of freedom    66
 Full point group                 C1      NOp   1
 Largest Abelian subgroup         C1      NOp   1
 Largest concise Abelian subgroup C1      NOp   1
                         Standard orientation:                         
 ---------------------------------------------------------------------
 Center     Atomic      Atomic             Coordinates (Angstroms)
 Number     Number       Type             X           Y           Z
 ---------------------------------------------------------------------
      1          6           0        0.003909   -1.386121   -0.212101
      2          6           0       -1.210358   -0.703665   -0.144058
      3          6           0        1.211926   -0.691853   -0.167177
      4          6           0       -1.213969    0.744744   -0.189345
      5          6           0       -0.007007    1.491335   -0.316201
      6          6           0        1.209397    0.760865   -0.167429
      7          6           0        2.445383   -1.399071   -0.039951
      8          6           0        3.627842   -0.739729    0.179876
      9          6           0        3.623167    0.674086    0.273760
     10          6           0        2.460023    1.376642    0.082277
     11          6           0       -2.437403   -1.408471    0.028669
     12          6           0       -3.619282   -0.741020    0.234674
     13          6           0       -3.625656    0.674596    0.239256
     14          6           0       -2.468446    1.370459   -0.005835
     15          1           0       -2.403751   -2.499602    0.039612
     16          1           0       -4.545442   -1.291099    0.402971
     17          1           0       -4.556336    1.215878    0.415357
     18          1           0       -2.481862    2.458522   -0.023538
     19          1           0        0.009443   -2.478829   -0.214432
     20          1           0        2.476473    2.455735    0.180991
     21          1           0        4.547724    1.211807    0.490543
     22          1           0        2.413486   -2.489925   -0.075642
     23          1           0        4.558284   -1.293911    0.306623
     24          1           0       -0.015171    2.574638   -0.300964
 ---------------------------------------------------------------------
 Rotational constants (GHZ):           2.0859008           0.4578030           0.3791735
 Leave Link  202 at Fri May  3 16:02:07 2024, MaxMem=   104857600 cpu:               0.0 elap:               0.1
 (Enter /curc/sw/gaussian/16/g16/l301.exe)
 Standard basis: Aug-CC-pVDZ (5D, 7F)
 Ernie: Thresh=  0.10000D-02 Tol=  0.10000D-05 Strict=F.
 Ernie:  28 primitive shells out of 420 were deleted.
 There are   440 symmetry adapted cartesian basis functions of A   symmetry.
 There are   412 symmetry adapted basis functions of A   symmetry.
   412 basis functions,   712 primitive gaussians,   440 cartesian basis functions
    47 alpha electrons       47 beta electrons
       nuclear repulsion energy       766.4648408551 Hartrees.
 IExCor=20419 DFT=T Ex+Corr=CAM-B3LYP ExCW=0 ScaHFX=  1.000000
 ScaDFX=  1.000000  1.000000  1.000000  0.810000 ScalE2=  1.000000  1.000000
 IRadAn=      5 IRanWt=     -1 IRanGd=            0 ICorTp=0 IEmpDi=  4
 HFx  wShort=  0.000000 wLong=  0.330000 cFull=  0.190000 cShort=  0.000000 cLong=  0.460000
 DFx  wShort=  0.000000 wLong=  0.330000 cFull=  0.190000 cShort=  0.000000 cLong=  0.460000
 NAtoms=   24 NActive=   24 NUniq=   24 SFac= 1.00D+00 NAtFMM=   60 NAOKFM=F Big=F
 Integral buffers will be    131072 words long.
 Raffenetti 1 integral format.
 Two-electron integral symmetry is turned on.
 Leave Link  301 at Fri May  3 16:02:08 2024, MaxMem=   104857600 cpu:               0.0 elap:               0.3
 (Enter /curc/sw/gaussian/16/g16/l302.exe)
 NPDir=0 NMtPBC=     1 NCelOv=     1 NCel=       1 NClECP=     1 NCelD=      1
         NCelK=      1 NCelE2=     1 NClLst=     1 CellRange=     0.0.
 One-electron integrals computed using PRISM.
 One-electron integral symmetry used in STVInt
 NBasis=   412 RedAO= T EigKep=  1.29D-06  NBF=   412
 NBsUse=   409 1.00D-06 EigRej=  8.98D-07 NBFU=   409
 Precomputing XC quadrature grid using
 IXCGrd= 4 IRadAn=           5 IRanWt=          -1 IRanGd=           0 AccXCQ= 0.00D+00.
 Generated NRdTot=       0 NPtTot=           0 NUsed=           0 NTot=          32
 NSgBfM=   440   440   440   440   440 MxSgAt=    24 MxSgA2=    24.
 Leave Link  302 at Fri May  3 16:02:11 2024, MaxMem=   104857600 cpu:               0.5 elap:               1.0
 (Enter /curc/sw/gaussian/16/g16/l303.exe)
 DipDrv:  MaxL=1.
 Leave Link  303 at Fri May  3 16:02:12 2024, MaxMem=   104857600 cpu:               0.1 elap:               0.2
 (Enter /curc/sw/gaussian/16/g16/l308.exe)
 Leave Link  308 at Fri May  3 16:02:13 2024, MaxMem=   104857600 cpu:               0.1 elap:               0.1
 (Enter /curc/sw/gaussian/16/g16/l401.exe)
 ExpMin= 2.97D-02 ExpMax= 6.67D+03 ExpMxC= 2.28D+02 IAcc=3 IRadAn=         5 AccDes= 0.00D+00
 Harris functional with IExCor=20419 and IRadAn=       5 diagonalized for initial guess.
 HarFok:  IExCor=20419 AccDes= 0.00D+00 IRadAn=         5 IDoV= 1 UseB2=F ITyADJ=14
 ICtDFT=  3500011 ScaDFX=  1.000000  1.000000  1.000000  1.000000
 FoFCou: FMM=F IPFlag=           0 FMFlag=      100000 FMFlg1=           0
         NFxFlg=           0 DoJE=T BraDBF=F KetDBF=T FulRan=T
         wScrn=  0.000000 ICntrl=       500 IOpCl=  0 I1Cent=   200000004 NGrid=           0
         NMat0=    1 NMatS0=      1 NMatT0=    0 NMatD0=    1 NMtDS0=    0 NMtDT0=    0
 Petite list used in FoFCou.
 Harris En= -517.184914285845    
 JPrj=0 DoOrth=F DoCkMO=F.
 Leave Link  401 at Fri May  3 16:02:23 2024, MaxMem=   104857600 cpu:               8.3 elap:               8.8
 (Enter /curc/sw/gaussian/16/g16/l502.exe)
 Integral symmetry usage will be decided dynamically.
 Closed shell SCF:
 Using DIIS extrapolation, IDIIS=  1040.
 NGot=   104857600 LenX=   104463664 LenY=   104269623
 Requested convergence on RMS density matrix=1.00D-08 within 128 cycles.
 Requested convergence on MAX density matrix=1.00D-06.
 Requested convergence on             energy=1.00D-06.
 No special actions if energy rises.
 Fock matrices will be formed incrementally for  20 cycles.

 Cycle   1  Pass 1  IDiag  1:
 FoFJK:  IHMeth= 1 ICntrl=       0 DoSepK=T KAlg= 0 I1Cent=           0 FoldK=F
 IRaf=         1 NMat=       1 IRICut=       1 DoRegI=T DoRafI=F ISym2E= 0 IDoP0=0 IntGTp=1.
 FoFCou: FMM=F IPFlag=           0 FMFlag=      100000 FMFlg1=           0
         NFxFlg=           0 DoJE=T BraDBF=F KetDBF=F FulRan=T
         wScrn=  0.000000 ICntrl=       500 IOpCl=  0 I1Cent=           0 NGrid=           0
         NMat0=    1 NMatS0=      1 NMatT0=    0 NMatD0=    1 NMtDS0=    0 NMtDT0=    0
 Symmetry not used in FoFCou.
 E= -539.195775115175    
 DIIS: error= 2.03D-02 at cycle   1 NSaved=   1.
 NSaved= 1 IEnMin= 1 EnMin= -539.195775115175     IErMin= 1 ErrMin= 2.03D-02
 ErrMax= 2.03D-02  0.00D+00 EMaxC= 1.00D-01 BMatC= 1.37D-01 BMatP= 1.37D-01
 IDIUse=3 WtCom= 7.97D-01 WtEn= 2.03D-01
 Coeff-Com:  0.100D+01
 Coeff-En:   0.100D+01
 Coeff:      0.100D+01
 Gap=     0.206 Goal=   None    Shift=    0.000
 GapD=    0.206 DampG=1.000 DampE=0.500 DampFc=0.5000 IDamp=-1.
 Damping current iteration by 5.00D-01
 RMSDP=5.32D-02 MaxDP=2.44D+00              OVMax= 5.53D-02

 Cycle   2  Pass 1  IDiag  1:
 RMSU=  6.80D-03    CP:  8.86D-01
 E= -539.223732914101     Delta-E=       -0.027957798927 Rises=F Damp=T
 DIIS: error= 1.04D-02 at cycle   2 NSaved=   2.
 NSaved= 2 IEnMin= 2 EnMin= -539.223732914101     IErMin= 2 ErrMin= 1.04D-02
 ErrMax= 1.04D-02  0.00D+00 EMaxC= 1.00D-01 BMatC= 3.17D-02 BMatP= 1.37D-01
 IDIUse=3 WtCom= 8.96D-01 WtEn= 1.04D-01
 Coeff-Com: -0.674D+00 0.167D+01
 Coeff-En:   0.000D+00 0.100D+01
 Coeff:     -0.604D+00 0.160D+01
 Gap=     0.211 Goal=   None    Shift=    0.000
 RMSDP=2.70D-02 MaxDP=1.25D+00 DE=-2.80D-02 OVMax= 4.75D-02

 Cycle   3  Pass 1  IDiag  1:
 RMSU=  8.67D-03    CP:  7.76D-01  1.92D+00
 E= -539.244952074362     Delta-E=       -0.021219160261 Rises=F Damp=F
 DIIS: error= 3.68D-03 at cycle   3 NSaved=   3.
 NSaved= 3 IEnMin= 3 EnMin= -539.244952074362     IErMin= 3 ErrMin= 3.68D-03
 ErrMax= 3.68D-03  0.00D+00 EMaxC= 1.00D-01 BMatC= 6.64D-03 BMatP= 3.17D-02
 IDIUse=3 WtCom= 9.63D-01 WtEn= 3.68D-02
 Coeff-Com: -0.385D+00 0.774D+00 0.611D+00
 Coeff-En:   0.000D+00 0.000D+00 0.100D+01
 Coeff:     -0.371D+00 0.745D+00 0.626D+00
 Gap=     0.210 Goal=   None    Shift=    0.000
 RMSDP=3.39D-03 MaxDP=1.28D-01 DE=-2.12D-02 OVMax= 2.76D-02

 Cycle   4  Pass 1  IDiag  1:
 RMSU=  1.33D-03    CP:  7.69D-01  2.05D+00  7.19D-01
 E= -539.251312420121     Delta-E=       -0.006360345759 Rises=F Damp=F
 DIIS: error= 1.77D-03 at cycle   4 NSaved=   4.
 NSaved= 4 IEnMin= 4 EnMin= -539.251312420121     IErMin= 4 ErrMin= 1.77D-03
 ErrMax= 1.77D-03  0.00D+00 EMaxC= 1.00D-01 BMatC= 6.69D-04 BMatP= 6.64D-03
 IDIUse=3 WtCom= 9.82D-01 WtEn= 1.77D-02
 Coeff-Com: -0.185D+00 0.360D+00 0.353D+00 0.471D+00
 Coeff-En:   0.000D+00 0.000D+00 0.000D+00 0.100D+01
 Coeff:     -0.181D+00 0.354D+00 0.347D+00 0.480D+00
 Gap=     0.208 Goal=   None    Shift=    0.000
 RMSDP=7.74D-04 MaxDP=3.41D-02 DE=-6.36D-03 OVMax= 9.32D-03

 Cycle   5  Pass 1  IDiag  1:
 RMSU=  2.91D-04    CP:  7.67D-01  2.01D+00  7.11D-01  5.85D-01
 E= -539.252074994927     Delta-E=       -0.000762574806 Rises=F Damp=F
 DIIS: error= 2.34D-04 at cycle   5 NSaved=   5.
 NSaved= 5 IEnMin= 5 EnMin= -539.252074994927     IErMin= 5 ErrMin= 2.34D-04
 ErrMax= 2.34D-04  0.00D+00 EMaxC= 1.00D-01 BMatC= 6.57D-06 BMatP= 6.69D-04
 IDIUse=3 WtCom= 9.98D-01 WtEn= 2.34D-03
 Coeff-Com: -0.174D-01 0.327D-01 0.339D-01 0.937D-01 0.857D+00
 Coeff-En:   0.000D+00 0.000D+00 0.000D+00 0.000D+00 0.100D+01
 Coeff:     -0.174D-01 0.326D-01 0.339D-01 0.935D-01 0.857D+00
 Gap=     0.208 Goal=   None    Shift=    0.000
 RMSDP=9.50D-05 MaxDP=3.23D-03 DE=-7.63D-04 OVMax= 1.91D-03

 Cycle   6  Pass 1  IDiag  1:
 RMSU=  8.85D-05    CP:  7.67D-01  2.01D+00  7.15D-01  5.84D-01  1.06D+00
 E= -539.252084567339     Delta-E=       -0.000009572412 Rises=F Damp=F
 DIIS: error= 6.92D-05 at cycle   6 NSaved=   6.
 NSaved= 6 IEnMin= 6 EnMin= -539.252084567339     IErMin= 6 ErrMin= 6.92D-05
 ErrMax= 6.92D-05  0.00D+00 EMaxC= 1.00D-01 BMatC= 2.64D-06 BMatP= 6.57D-06
 IDIUse=1 WtCom= 1.00D+00 WtEn= 0.00D+00
 Coeff-Com:  0.177D-01-0.352D-01-0.338D-01-0.248D-01 0.424D+00 0.652D+00
 Coeff:      0.177D-01-0.352D-01-0.338D-01-0.248D-01 0.424D+00 0.652D+00
 Gap=     0.209 Goal=   None    Shift=    0.000
 RMSDP=4.66D-05 MaxDP=3.22D-03 DE=-9.57D-06 OVMax= 7.82D-04

 Cycle   7  Pass 1  IDiag  1:
 RMSU=  3.40D-05    CP:  7.67D-01  2.01D+00  7.16D-01  5.95D-01  1.11D+00
                    CP:  7.88D-01
 E= -539.252088210937     Delta-E=       -0.000003643598 Rises=F Damp=F
 DIIS: error= 3.81D-05 at cycle   7 NSaved=   7.
 NSaved= 7 IEnMin= 7 EnMin= -539.252088210937     IErMin= 7 ErrMin= 3.81D-05
 ErrMax= 3.81D-05  0.00D+00 EMaxC= 1.00D-01 BMatC= 2.18D-07 BMatP= 2.64D-06
 IDIUse=1 WtCom= 1.00D+00 WtEn= 0.00D+00
 Coeff-Com:  0.853D-02-0.168D-01-0.161D-01-0.209D-01 0.546D-01 0.247D+00
 Coeff-Com:  0.743D+00
 Coeff:      0.853D-02-0.168D-01-0.161D-01-0.209D-01 0.546D-01 0.247D+00
 Coeff:      0.743D+00
 Gap=     0.209 Goal=   None    Shift=    0.000
 RMSDP=1.64D-05 MaxDP=8.49D-04 DE=-3.64D-06 OVMax= 3.62D-04

 Cycle   8  Pass 1  IDiag  1:
 RMSU=  1.27D-05    CP:  7.67D-01  2.01D+00  7.16D-01  5.97D-01  1.13D+00
                    CP:  8.06D-01  8.26D-01
 E= -539.252088641090     Delta-E=       -0.000000430153 Rises=F Damp=F
 DIIS: error= 1.55D-05 at cycle   8 NSaved=   8.
 NSaved= 8 IEnMin= 8 EnMin= -539.252088641090     IErMin= 8 ErrMin= 1.55D-05
 ErrMax= 1.55D-05  0.00D+00 EMaxC= 1.00D-01 BMatC= 5.04D-08 BMatP= 2.18D-07
 IDIUse=1 WtCom= 1.00D+00 WtEn= 0.00D+00
 Coeff-Com:  0.174D-02-0.336D-02-0.317D-02-0.696D-02-0.323D-01 0.294D-01
 Coeff-Com:  0.353D+00 0.661D+00
 Coeff:      0.174D-02-0.336D-02-0.317D-02-0.696D-02-0.323D-01 0.294D-01
 Coeff:      0.353D+00 0.661D+00
 Gap=     0.209 Goal=   None    Shift=    0.000
 RMSDP=6.83D-06 MaxDP=2.66D-04 DE=-4.30D-07 OVMax= 1.73D-04

 Cycle   9  Pass 1  IDiag  1:
 RMSU=  5.87D-06    CP:  7.67D-01  2.01D+00  7.17D-01  5.97D-01  1.13D+00
                    CP:  8.03D-01  8.68D-01  9.95D-01
 E= -539.252088736622     Delta-E=       -0.000000095532 Rises=F Damp=F
 DIIS: error= 7.03D-06 at cycle   9 NSaved=   9.
 NSaved= 9 IEnMin= 9 EnMin= -539.252088736622     IErMin= 9 ErrMin= 7.03D-06
 ErrMax= 7.03D-06  0.00D+00 EMaxC= 1.00D-01 BMatC= 7.22D-09 BMatP= 5.04D-08
 IDIUse=1 WtCom= 1.00D+00 WtEn= 0.00D+00
 Coeff-Com: -0.207D-02 0.409D-02 0.395D-02 0.389D-02-0.311D-01-0.685D-01
 Coeff-Com: -0.966D-01 0.256D+00 0.931D+00
 Coeff:     -0.207D-02 0.409D-02 0.395D-02 0.389D-02-0.311D-01-0.685D-01
 Coeff:     -0.966D-01 0.256D+00 0.931D+00
 Gap=     0.209 Goal=   None    Shift=    0.000
 RMSDP=3.05D-06 MaxDP=1.19D-04 DE=-9.55D-08 OVMax= 1.08D-04

 Cycle  10  Pass 1  IDiag  1:
 RMSU=  2.04D-06    CP:  7.67D-01  2.01D+00  7.17D-01  5.96D-01  1.14D+00
                    CP:  8.07D-01  9.05D-01  1.10D+00  9.16D-01
 E= -539.252088756850     Delta-E=       -0.000000020228 Rises=F Damp=F
 DIIS: error= 7.42D-07 at cycle  10 NSaved=  10.
 NSaved=10 IEnMin=10 EnMin= -539.252088756850     IErMin=10 ErrMin= 7.42D-07
 ErrMax= 7.42D-07  0.00D+00 EMaxC= 1.00D-01 BMatC= 2.51D-10 BMatP= 7.22D-09
 IDIUse=1 WtCom= 1.00D+00 WtEn= 0.00D+00
 Coeff-Com: -0.754D-03 0.149D-02 0.142D-02 0.152D-02-0.899D-02-0.229D-01
 Coeff-Com: -0.422D-01 0.594D-01 0.297D+00 0.714D+00
 Coeff:     -0.754D-03 0.149D-02 0.142D-02 0.152D-02-0.899D-02-0.229D-01
 Coeff:     -0.422D-01 0.594D-01 0.297D+00 0.714D+00
 Gap=     0.209 Goal=   None    Shift=    0.000
 RMSDP=6.62D-07 MaxDP=2.35D-05 DE=-2.02D-08 OVMax= 8.36D-06

 Cycle  11  Pass 1  IDiag  1:
 RMSU=  5.30D-07    CP:  7.67D-01  2.01D+00  7.17D-01  5.96D-01  1.14D+00
                    CP:  8.07D-01  9.00D-01  1.11D+00  9.14D-01  9.08D-01
 E= -539.252088757159     Delta-E=       -0.000000000309 Rises=F Damp=F
 DIIS: error= 2.87D-07 at cycle  11 NSaved=  11.
 NSaved=11 IEnMin=11 EnMin= -539.252088757159     IErMin=11 ErrMin= 2.87D-07
 ErrMax= 2.87D-07  0.00D+00 EMaxC= 1.00D-01 BMatC= 3.97D-11 BMatP= 2.51D-10
 IDIUse=1 WtCom= 1.00D+00 WtEn= 0.00D+00
 Coeff-Com:  0.372D-04-0.759D-04-0.843D-04-0.477D-04 0.133D-02 0.202D-02
 Coeff-Com:  0.228D-03-0.174D-01-0.342D-01 0.258D+00 0.790D+00
 Coeff:      0.372D-04-0.759D-04-0.843D-04-0.477D-04 0.133D-02 0.202D-02
 Coeff:      0.228D-03-0.174D-01-0.342D-01 0.258D+00 0.790D+00
 Gap=     0.209 Goal=   None    Shift=    0.000
 RMSDP=4.29D-07 MaxDP=2.22D-05 DE=-3.09D-10 OVMax= 3.33D-06

 Cycle  12  Pass 1  IDiag  1:
 RMSU=  2.15D-07    CP:  7.67D-01  2.01D+00  7.17D-01  5.96D-01  1.14D+00
                    CP:  8.07D-01  8.99D-01  1.11D+00  9.21D-01  9.60D-01
                    CP:  9.12D-01
 E= -539.252088757239     Delta-E=       -0.000000000080 Rises=F Damp=F
 DIIS: error= 8.70D-08 at cycle  12 NSaved=  12.
 NSaved=12 IEnMin=12 EnMin= -539.252088757239     IErMin=12 ErrMin= 8.70D-08
 ErrMax= 8.70D-08  0.00D+00 EMaxC= 1.00D-01 BMatC= 3.51D-12 BMatP= 3.97D-11
 IDIUse=1 WtCom= 1.00D+00 WtEn= 0.00D+00
 Coeff-Com:  0.695D-04-0.138D-03-0.136D-03-0.126D-03 0.114D-02 0.244D-02
 Coeff-Com:  0.350D-02-0.110D-01-0.361D-01 0.284D-01 0.283D+00 0.729D+00
 Coeff:      0.695D-04-0.138D-03-0.136D-03-0.126D-03 0.114D-02 0.244D-02
 Coeff:      0.350D-02-0.110D-01-0.361D-01 0.284D-01 0.283D+00 0.729D+00
 Gap=     0.209 Goal=   None    Shift=    0.000
 RMSDP=1.17D-07 MaxDP=6.70D-06 DE=-8.05D-11 OVMax= 8.56D-07

 Cycle  13  Pass 1  IDiag  1:
 RMSU=  6.16D-08    CP:  7.67D-01  2.01D+00  7.17D-01  5.96D-01  1.14D+00
                    CP:  8.07D-01  8.99D-01  1.11D+00  9.23D-01  9.61D-01
                    CP:  9.57D-01  9.23D-01
 E= -539.252088757251     Delta-E=       -0.000000000012 Rises=F Damp=F
 DIIS: error= 2.43D-08 at cycle  13 NSaved=  13.
 NSaved=13 IEnMin=13 EnMin= -539.252088757251     IErMin=13 ErrMin= 2.43D-08
 ErrMax= 2.43D-08  0.00D+00 EMaxC= 1.00D-01 BMatC= 3.02D-13 BMatP= 3.51D-12
 IDIUse=1 WtCom= 1.00D+00 WtEn= 0.00D+00
 Coeff-Com:  0.195D-04-0.385D-04-0.369D-04-0.352D-04 0.247D-03 0.592D-03
 Coeff-Com:  0.118D-02-0.208D-02-0.886D-02-0.154D-01 0.243D-01 0.239D+00
 Coeff-Com:  0.761D+00
 Coeff:      0.195D-04-0.385D-04-0.369D-04-0.352D-04 0.247D-03 0.592D-03
 Coeff:      0.118D-02-0.208D-02-0.886D-02-0.154D-01 0.243D-01 0.239D+00
 Coeff:      0.761D+00
 Gap=     0.209 Goal=   None    Shift=    0.000
 RMSDP=2.60D-08 MaxDP=1.15D-06 DE=-1.18D-11 OVMax= 3.53D-07

 Cycle  14  Pass 1  IDiag  1:
 RMSU=  1.94D-08    CP:  7.67D-01  2.01D+00  7.17D-01  5.96D-01  1.14D+00
                    CP:  8.07D-01  8.99D-01  1.11D+00  9.23D-01  9.63D-01
                    CP:  9.65D-01  9.57D-01  9.50D-01
 E= -539.252088757237     Delta-E=        0.000000000014 Rises=F Damp=F
 DIIS: error= 1.09D-08 at cycle  14 NSaved=  14.
 NSaved=14 IEnMin=13 EnMin= -539.252088757251     IErMin=14 ErrMin= 1.09D-08
 ErrMax= 1.09D-08  0.00D+00 EMaxC= 1.00D-01 BMatC= 2.73D-14 BMatP= 3.02D-13
 IDIUse=1 WtCom= 1.00D+00 WtEn= 0.00D+00
 Coeff-Com: -0.182D-05 0.369D-05 0.392D-05 0.340D-05-0.518D-04-0.103D-03
 Coeff-Com: -0.748D-05 0.625D-03 0.147D-02-0.755D-02-0.217D-01-0.829D-02
 Coeff-Com:  0.202D+00 0.833D+00
 Coeff:     -0.182D-05 0.369D-05 0.392D-05 0.340D-05-0.518D-04-0.103D-03
 Coeff:     -0.748D-05 0.625D-03 0.147D-02-0.755D-02-0.217D-01-0.829D-02
 Coeff:      0.202D+00 0.833D+00
 Gap=     0.209 Goal=   None    Shift=    0.000
 RMSDP=7.85D-09 MaxDP=3.77D-07 DE= 1.39D-11 OVMax= 2.21D-07

 SCF Done:  E(RCAM-B3LYP) =  -539.252088757     A.U. after   14 cycles
            NFock= 14  Conv=0.78D-08     -V/T= 2.0059
 KE= 5.360672619087D+02 PE=-2.782770391856D+03 EE= 9.409862003346D+02
 Leave Link  502 at Fri May  3 16:20:28 2024, MaxMem=   104857600 cpu:            1080.6 elap:            1084.2
 (Enter /curc/sw/gaussian/16/g16/l801.exe)
 DoSCS=F DFT=T ScalE2(SS,OS)=  1.000000  1.000000
 ExpMin= 2.97D-02 ExpMax= 6.67D+03 ExpMxC= 2.28D+02 IAcc=3 IRadAn=         5 AccDes= 0.00D+00
 HarFok:  IExCor=  205 AccDes= 0.00D+00 IRadAn=         5 IDoV=-2 UseB2=F ITyADJ=14
 ICtDFT= 12500011 ScaDFX=  1.000000  1.000000  1.000000  1.000000
 Largest valence mixing into a core orbital is  4.14D-05
 Largest core mixing into a valence orbital is  1.74D-05
 Range of M.O.s used for correlation:    15   409
 NBasis=   412 NAE=    47 NBE=    47 NFC=    14 NFV=     0
 NROrb=    395 NOA=    33 NOB=    33 NVA=   362 NVB=   362

 **** Warning!!: The largest alpha MO coefficient is  0.11116511D+03

 Leave Link  801 at Fri May  3 16:20:30 2024, MaxMem=   104857600 cpu:               0.5 elap:               1.2
 (Enter /curc/sw/gaussian/16/g16/l914.exe)
 RHF ground state
 Two-electron integrals replicated using symmetry.
 MDV=   104857600 DFT=T DoStab=F Mixed=T DoRPA=T DoScal=F NonHer=T
 Making orbital integer symmetry assigments:
 Orbital symmetries:
       Occupied  (A) (A) (A) (A) (A) (A) (A) (A) (A) (A) (A) (A)
                 (A) (A) (A) (A) (A) (A) (A) (A) (A) (A) (A) (A)
                 (A) (A) (A) (A) (A) (A) (A) (A) (A) (A) (A) (A)
                 (A) (A) (A) (A) (A) (A) (A) (A) (A) (A) (A)
       Virtual   (A) (A) (A) (A) (A) (A) (A) (A) (A) (A) (A) (A)
                 (A) (A) (A) (A) (A) (A) (A) (A) (A) (A) (A) (A)
                 (A) (A) (A) (A) (A) (A) (A) (A) (A) (A) (A) (A)
                 (A) (A) (A) (A) (A) (A) (A) (A) (A) (A) (A) (A)
                 (A) (A) (A) (A) (A) (A) (A) (A) (A) (A) (A) (A)
                 (A) (A) (A) (A) (A) (A) (A) (A) (A) (A) (A) (A)
                 (A) (A) (A) (A) (A) (A) (A) (A) (A) (A) (A) (A)
                 (A) (A) (A) (A) (A) (A) (A) (A) (A) (A) (A) (A)
                 (A) (A) (A) (A) (A) (A) (A) (A) (A) (A) (A) (A)
                 (A) (A) (A) (A) (A) (A) (A) (A) (A) (A) (A) (A)
                 (A) (A) (A) (A) (A) (A) (A) (A) (A) (A) (A) (A)
                 (A) (A) (A) (A) (A) (A) (A) (A) (A) (A) (A) (A)
                 (A) (A) (A) (A) (A) (A) (A) (A) (A) (A) (A) (A)
                 (A) (A) (A) (A) (A) (A) (A) (A) (A) (A) (A) (A)
                 (A) (A) (A) (A) (A) (A) (A) (A) (A) (A) (A) (A)
                 (A) (A) (A) (A) (A) (A) (A) (A) (A) (A) (A) (A)
                 (A) (A) (A) (A) (A) (A) (A) (A) (A) (A) (A) (A)
                 (A) (A) (A) (A) (A) (A) (A) (A) (A) (A) (A) (A)
                 (A) (A) (A) (A) (A) (A) (A) (A) (A) (A) (A) (A)
                 (A) (A) (A) (A) (A) (A) (A) (A) (A) (A) (A) (A)
                 (A) (A) (A) (A) (A) (A) (A) (A) (A) (A) (A) (A)
                 (A) (A) (A) (A) (A) (A) (A) (A) (A) (A) (A) (A)
                 (A) (A) (A) (A) (A) (A) (A) (A) (A) (A) (A) (A)
                 (A) (A) (A) (A) (A) (A) (A) (A) (A) (A) (A) (A)
                 (A) (A) (A) (A) (A) (A) (A) (A) (A) (A) (A) (A)
                 (A) (A) (A) (A) (A) (A) (A) (A) (A) (A) (A) (A)
                 (A) (A) (A) (A) (A) (A) (A) (A) (A) (A) (A) (A)
                 (A) (A) (A) (A) (A) (A) (A) (A) (A) (A) (A) (A)
                 (A) (A) (A) (A) (A) (A) (A) (A) (A) (A) (A) (A)
                 (A) (A) (A) (A) (A) (A) (A) (A) (A) (A) (A) (A)
                 (A) (A)
    80 initial guesses have been made.
 Convergence on wavefunction:    0.001000000000000
 Davidson Disk Diagonalization:  ConvIn= 1.00D-03 SkipCon=T Conv= 1.00D-03.
 Max sub-space:  2000 roots to seek:    80 dimension of matrix:        23892
 Iteration     1 Dimension    80 NMult     0 NNew     80
 CISAX will form    80 AO SS matrices at one time.
 NMat=    80 NSing=    80 JSym2X= 0.
 FoFJK:  IHMeth= 1 ICntrl=       0 DoSepK=T KAlg= 0 I1Cent=           0 FoldK=F
 IRaf=         1 NMat=     160 IRICut=       1 DoRegI=T DoRafI=F ISym2E= 0 IDoP0=3 IntGTp=3.
 FoFCou: FMM=F IPFlag=           0 FMFlag=      100000 FMFlg1=           0
         NFxFlg=           0 DoJE=F BraDBF=F KetDBF=F FulRan=T
         wScrn=  0.000000 ICntrl=       500 IOpCl=  0 I1Cent=           0 NGrid=           0
         NMat0=   80 NMatS0=     80 NMatT0=    0 NMatD0=   80 NMtDS0=    0 NMtDT0=    0
 Symmetry not used in FoFCou.
 New state      4 was old state      9
 New state      5 was old state      6
 New state      6 was old state      5
 New state      7 was old state     11
 New state      8 was old state     10
 New state      9 was old state      7
 New state     10 was old state      8
 New state     11 was old state      4
 New state     12 was old state     30
 New state     13 was old state     16
 New state     14 was old state     12
 New state     15 was old state     13
 New state     16 was old state     26
 New state     17 was old state     14
 New state     18 was old state     45
 New state     19 was old state     20
 New state     20 was old state     15
 Excitation Energies [eV] at current iteration:
 Root      1 :     3.944201317373272
 Root      2 :     4.102548120159460
 Root      3 :     5.084598432406777
 Root      4 :     5.303715261987501
 Root      5 :     5.330280572260231
 Root      6 :     5.413435368380748
 Root      7 :     5.452113174013278
 Root      8 :     5.726847686678043
 Root      9 :     5.843989525406514
 Root     10 :     5.882270524076965
 Root     11 :     5.946847032951031
 Root     12 :     5.955948617382749
 Root     13 :     6.222256710650877
 Root     14 :     6.366414056946785
 Root     15 :     6.397585390920487
 Root     16 :     6.481716187789667
 Root     17 :     6.485343868101379
 Root     18 :     6.655018235020500
 Root     19 :     6.703549283939580
 Root     20 :     6.724675801641578
 Root     21 :     6.781434042503108
 Root     22 :     6.805383270066524
 Root     23 :     6.809825521383393
 Root     24 :     6.841954267635229
 Root     25 :     6.902730590826271
 Root     26 :     6.975534117104162
 Root     27 :     7.024404994715479
 Root     28 :     7.030361715758342
 Root     29 :     7.106496330036686
 Root     30 :     7.206468670731033
 Root     31 :     7.241045516550271
 Root     32 :     7.281553484326124
 Root     33 :     7.308930695867574
 Root     34 :     7.318213810037494
 Root     35 :     7.367767938148647
 Root     36 :     7.493936638521649
 Root     37 :     7.504728139597260
 Root     38 :     7.522243500338544
 Root     39 :     7.593228270024933
 Root     40 :     7.679815210595832
 Root     41 :     7.710975628713425
 Root     42 :     7.795558271251378
 Root     43 :     7.813661651165994
 Root     44 :     7.817145505913255
 Root     45 :     7.877455172860266
 Root     46 :     7.886411009947582
 Root     47 :     7.917389768303775
 Root     48 :     7.994439657942396
 Root     49 :     7.996437943260377
 Root     50 :     8.029547388826115
 Root     51 :     8.053468803602184
 Root     52 :     8.117272254033045
 Root     53 :     8.125858574724383
 Root     54 :     8.225077542445511
 Root     55 :     8.280201466781955
 Root     56 :     8.292480575578518
 Root     57 :     8.338438417751579
 Root     58 :     8.364801483215253
 Root     59 :     8.429013077306212
 Root     60 :     8.459330077838427
 Root     61 :     8.482050485551550
 Root     62 :     8.485010193380939
 Root     63 :     8.513325248545199
 Root     64 :     8.535552152453173
 Root     65 :     8.582125696131644
 Root     66 :     8.611049389573479
 Root     67 :     8.627799797742577
 Root     68 :     8.671785675562708
 Root     69 :     8.674597640670154
 Root     70 :     8.730695552255016
 Root     71 :     8.736966163576527
 Root     72 :     8.754995521584213
 Root     73 :     8.771845141854579
 Root     74 :     8.814768338786385
 Root     75 :     8.948922857816541
 Root     76 :     8.969983254772734
 Root     77 :     8.991991129330643
 Root     78 :     9.019312221053420
 Root     79 :     9.030816626976550
 Root     80 :     9.131323852120097
 Iteration     2 Dimension   120 NMult    80 NNew     40
 CISAX will form    40 AO SS matrices at one time.
 NMat=    40 NSing=    40 JSym2X= 0.
 Root      1 not converged, maximum delta is    0.050346891991945
 Root      2 not converged, maximum delta is    0.065691888144022
 Root      3 not converged, maximum delta is    0.123182562100647
 New state      4 was old state      8
 Root      4 not converged, maximum delta is    0.223657013405765
 New state      5 was old state      4
 Root      5 not converged, maximum delta is    0.209564979325279
 New state      6 was old state      5
 Root      6 not converged, maximum delta is    0.330828458627045
 New state      7 was old state     11
 Root      7 not converged, maximum delta is    0.252663450756770
 New state      8 was old state      7
 Root      8 not converged, maximum delta is    0.320981518315007
 New state      9 was old state      6
 Root      9 not converged, maximum delta is    0.174278567369820
 New state     10 was old state     12
 Root     10 not converged, maximum delta is    0.234396608437865
 New state     11 was old state      9
 Root     11 not converged, maximum delta is    0.131310160120566
 New state     12 was old state     10
 Root     12 not converged, maximum delta is    0.056167055685049
 New state     13 was old state     20
 Root     13 not converged, maximum delta is    0.406865353219193
 New state     14 was old state     13
 Root     14 not converged, maximum delta is    0.214219856251103
 New state     15 was old state     16
 Root     15 not converged, maximum delta is    0.237594683114230
 New state     16 was old state     14
 Root     16 not converged, maximum delta is    0.203033530343580
 New state     17 was old state     15
 Root     17 not converged, maximum delta is    0.056997191935798
 New state     18 was old state     17
 Root     18 not converged, maximum delta is    0.095950455479757
 New state     19 was old state     18
 Root     19 not converged, maximum delta is    0.141521855928878
 New state     20 was old state     19
 Root     20 not converged, maximum delta is    0.092101830628269
 Excitation Energies [eV] at current iteration:
 Root      1 :     3.389850588064991   Change is   -0.554350729308281
 Root      2 :     3.922476975341529   Change is   -0.180071144817930
 Root      3 :     5.035161611646216   Change is   -0.049436820760561
 Root      4 :     5.051666631465485   Change is   -0.675181055212557
 Root      5 :     5.222372660563574   Change is   -0.081342601423928
 Root      6 :     5.276811048419606   Change is   -0.053469523840625
 Root      7 :     5.291691335396468   Change is   -0.655155697554564
 Root      8 :     5.305869947281426   Change is   -0.146243226731852
 Root      9 :     5.373866078350036   Change is   -0.039569290030712
 Root     10 :     5.765934064098330   Change is   -0.190014553284419
 Root     11 :     5.793767017065147   Change is   -0.050222508341366
 Root     12 :     5.833097202046700   Change is   -0.049173322030265
 Root     13 :     6.058165016363513   Change is   -0.666510785278066
 Root     14 :     6.111540284986160   Change is   -0.110716425664717
 Root     15 :     6.267965853710846   Change is   -0.213750334078820
 Root     16 :     6.314073944135111   Change is   -0.052340112811674
 Root     17 :     6.343039853569951   Change is   -0.054545537350536
 Root     18 :     6.381286238111618   Change is   -0.104057629989761
 Root     19 :     6.420447537042548   Change is   -0.234570697977952
 Root     20 :     6.573603787495427   Change is   -0.129945496444154
 Iteration     3 Dimension   160 NMult   120 NNew     40
 CISAX will form    40 AO SS matrices at one time.
 NMat=    40 NSing=    40 JSym2X= 0.
 Root      1 not converged, maximum delta is    0.007585294968402
 Root      2 not converged, maximum delta is    0.005761129202692
 Root      3 not converged, maximum delta is    0.314294248789280
 Root      4 not converged, maximum delta is    0.356232430886808
 Root      5 not converged, maximum delta is    0.053877442946796
 New state      6 was old state      7
 Root      6 not converged, maximum delta is    0.139268650641301
 New state      7 was old state      6
 Root      7 not converged, maximum delta is    0.055281095808574
 Root      8 not converged, maximum delta is    0.080489861989523
 Root      9 not converged, maximum delta is    0.044838247642343
 Root     10 not converged, maximum delta is    0.028157891884618
 Root     11 not converged, maximum delta is    0.019674074438656
 Root     12 not converged, maximum delta is    0.003725083044438
 Root     13 not converged, maximum delta is    0.096179431120670
 Root     14 not converged, maximum delta is    0.099017023321076
 Root     15 not converged, maximum delta is    0.051938813908386
 Root     16 not converged, maximum delta is    0.044117834414628
 Root     17 not converged, maximum delta is    0.006530379762537
 Root     18 not converged, maximum delta is    0.017676109650261
 Root     19 not converged, maximum delta is    0.015530929419752
 Root     20 not converged, maximum delta is    0.029541528304512
 Excitation Energies [eV] at current iteration:
 Root      1 :     3.375700818987361   Change is   -0.014149769077630
 Root      2 :     3.916842005381663   Change is   -0.005634969959867
 Root      3 :     5.031029377242300   Change is   -0.004132234403916
 Root      4 :     5.038324276718170   Change is   -0.013342354747316
 Root      5 :     5.215117998957179   Change is   -0.007254661606394
 Root      6 :     5.254240575008621   Change is   -0.037450760387846
 Root      7 :     5.273842221419648   Change is   -0.002968826999959
 Root      8 :     5.301438354171823   Change is   -0.004431593109603
 Root      9 :     5.370265602693042   Change is   -0.003600475656994
 Root     10 :     5.759435983249086   Change is   -0.006498080849244
 Root     11 :     5.792117025043486   Change is   -0.001649992021662
 Root     12 :     5.831715425381426   Change is   -0.001381776665273
 Root     13 :     6.009754607938823   Change is   -0.048410408424690
 Root     14 :     6.106113481717752   Change is   -0.005426803268409
 Root     15 :     6.248219138841017   Change is   -0.019746714869829
 Root     16 :     6.310249450449873   Change is   -0.003824493685239
 Root     17 :     6.341523369397294   Change is   -0.001516484172658
 Root     18 :     6.378641205226113   Change is   -0.002645032885506
 Root     19 :     6.408180003225375   Change is   -0.012267533817172
 Root     20 :     6.562042133862354   Change is   -0.011561653633073
 Iteration     4 Dimension   200 NMult   160 NNew     40
 CISAX will form    40 AO SS matrices at one time.
 NMat=    40 NSing=    40 JSym2X= 0.
 Root      1 has converged.
 Root      2 has converged.
 Root      3 not converged, maximum delta is    0.034524552516231
 Root      4 not converged, maximum delta is    0.029999749760749
 Root      5 not converged, maximum delta is    0.004297131262224
 Root      6 not converged, maximum delta is    0.005471763487097
 Root      7 not converged, maximum delta is    0.002485925369045
 Root      8 not converged, maximum delta is    0.002650086210965
 Root      9 not converged, maximum delta is    0.001472003464509
 Root     10 not converged, maximum delta is    0.001685194717096
 Root     11 has converged.
 Root     12 has converged.
 Root     13 not converged, maximum delta is    0.004482444213533
 Root     14 not converged, maximum delta is    0.003620135835574
 Root     15 not converged, maximum delta is    0.005844370675970
 Root     16 not converged, maximum delta is    0.003048193810651
 Root     17 not converged, maximum delta is    0.003367724093970
 Root     18 not converged, maximum delta is    0.023599658824631
 Root     19 not converged, maximum delta is    0.005647105797327
 Root     20 not converged, maximum delta is    0.518559253280980
 Excitation Energies [eV] at current iteration:
 Root      1 :     3.375321943622126   Change is   -0.000378875365235
 Root      2 :     3.916641646296910   Change is   -0.000200359084752
 Root      3 :     5.030390057637188   Change is   -0.000639319605112
 Root      4 :     5.037908874410028   Change is   -0.000415402308141
 Root      5 :     5.214695042069005   Change is   -0.000422956888174
 Root      6 :     5.252573331941027   Change is   -0.001667243067595
 Root      7 :     5.273683466567923   Change is   -0.000158754851724
 Root      8 :     5.301265913590041   Change is   -0.000172440581782
 Root      9 :     5.370146330627634   Change is   -0.000119272065408
 Root     10 :     5.759186598601928   Change is   -0.000249384647158
 Root     11 :     5.792043585290786   Change is   -0.000073439752699
 Root     12 :     5.831674402618359   Change is   -0.000041022763067
 Root     13 :     6.006419957383109   Change is   -0.003334650555714
 Root     14 :     6.105890521003106   Change is   -0.000222960714645
 Root     15 :     6.246454419709988   Change is   -0.001764719131029
 Root     16 :     6.310018378655982   Change is   -0.000231071793891
 Root     17 :     6.341411763867264   Change is   -0.000111605530030
 Root     18 :     6.377973337911325   Change is   -0.000667867314788
 Root     19 :     6.407495178048873   Change is   -0.000684825176502
 Root     20 :     6.541006183494192   Change is   -0.021035950368162
 Iteration     5 Dimension   232 NMult   200 NNew     32
 CISAX will form    32 AO SS matrices at one time.
 NMat=    32 NSing=    32 JSym2X= 0.
 Root      1 has converged.
 Root      2 has converged.
 Root      3 not converged, maximum delta is    0.002140325504358
 Root      4 not converged, maximum delta is    0.001885801415450
 Root      5 has converged.
 Root      6 has converged.
 Root      7 has converged.
 Root      8 has converged.
 Root      9 has converged.
 Root     10 has converged.
 Root     11 has converged.
 Root     12 has converged.
 Root     13 has converged.
 Root     14 has converged.
 Root     15 not converged, maximum delta is    0.001188009124014
 Root     16 has converged.
 Root     17 has converged.
 Root     18 not converged, maximum delta is    0.007155300595703
 Root     19 not converged, maximum delta is    0.002512257064713
 Root     20 not converged, maximum delta is    0.110370681365468
 Excitation Energies [eV] at current iteration:
 Root      1 :     3.375320316330092   Change is   -0.000001627292034
 Root      2 :     3.916638475791865   Change is   -0.000003170505045
 Root      3 :     5.030348385603197   Change is   -0.000041672033991
 Root      4 :     5.037885701707042   Change is   -0.000023172702986
 Root      5 :     5.214677164452195   Change is   -0.000017877616810
 Root      6 :     5.252487557360547   Change is   -0.000085774580479
 Root      7 :     5.273678005767075   Change is   -0.000005460800848
 Root      8 :     5.301259984093510   Change is   -0.000005929496531
 Root      9 :     5.370139990839222   Change is   -0.000006339788411
 Root     10 :     5.759174513458484   Change is   -0.000012085143444
 Root     11 :     5.792041798530781   Change is   -0.000001786760005
 Root     12 :     5.831674319221775   Change is   -0.000000083396584
 Root     13 :     6.006256946598397   Change is   -0.000163010784711
 Root     14 :     6.105876998858517   Change is   -0.000013522144589
 Root     15 :     6.246361413470746   Change is   -0.000093006239242
 Root     16 :     6.310005460546138   Change is   -0.000012918109844
 Root     17 :     6.341401852904962   Change is   -0.000009910962301
 Root     18 :     6.377838311250738   Change is   -0.000135026660586
 Root     19 :     6.407444754502983   Change is   -0.000050423545890
 Root     20 :     6.511017074735349   Change is   -0.029989108758842
 Iteration     6 Dimension   244 NMult   232 NNew     12
 CISAX will form    12 AO SS matrices at one time.
 NMat=    12 NSing=    12 JSym2X= 0.
 Root      1 has converged.
 Root      2 has converged.
 Root      3 has converged.
 Root      4 has converged.
 Root      5 has converged.
 Root      6 has converged.
 Root      7 has converged.
 Root      8 has converged.
 Root      9 has converged.
 Root     10 has converged.
 Root     11 has converged.
 Root     12 has converged.
 Root     13 has converged.
 Root     14 has converged.
 Root     15 has converged.
 Root     16 has converged.
 Root     17 has converged.
 Root     18 has converged.
 Root     19 has converged.
 Root     20 not converged, maximum delta is    0.007490311215029
 Excitation Energies [eV] at current iteration:
 Root      1 :     3.375320058502044   Change is   -0.000000257828048
 Root      2 :     3.916638264736305   Change is   -0.000000211055560
 Root      3 :     5.030346663543247   Change is   -0.000001722059951
 Root      4 :     5.037884739963276   Change is   -0.000000961743766
 Root      5 :     5.214677044159528   Change is   -0.000000120292666
 Root      6 :     5.252487253227224   Change is   -0.000000304133323
 Root      7 :     5.273677938840195   Change is   -0.000000066926880
 Root      8 :     5.301259919905893   Change is   -0.000000064187616
 Root      9 :     5.370139948918508   Change is   -0.000000041920714
 Root     10 :     5.759174489755089   Change is   -0.000000023703396
 Root     11 :     5.792041759665386   Change is   -0.000000038865395
 Root     12 :     5.831674278334855   Change is   -0.000000040886920
 Root     13 :     6.006255521143480   Change is   -0.000001425454918
 Root     14 :     6.105876882530101   Change is   -0.000000116328416
 Root     15 :     6.246355910866388   Change is   -0.000005502604358
 Root     16 :     6.310005229164994   Change is   -0.000000231381143
 Root     17 :     6.341401583422967   Change is   -0.000000269481995
 Root     18 :     6.377830586221549   Change is   -0.000007725029189
 Root     19 :     6.407440908111109   Change is   -0.000003846391874
 Root     20 :     6.509530880599947   Change is   -0.001486194135403
 Iteration     7 Dimension   246 NMult   244 NNew      2
 CISAX will form     2 AO SS matrices at one time.
 NMat=     2 NSing=     2 JSym2X= 0.
 Root      1 has converged.
 Root      2 has converged.
 Root      3 has converged.
 Root      4 has converged.
 Root      5 has converged.
 Root      6 has converged.
 Root      7 has converged.
 Root      8 has converged.
 Root      9 has converged.
 Root     10 has converged.
 Root     11 has converged.
 Root     12 has converged.
 Root     13 has converged.
 Root     14 has converged.
 Root     15 has converged.
 Root     16 has converged.
 Root     17 has converged.
 Root     18 has converged.
 Root     19 has converged.
 Root     20 not converged, maximum delta is    0.006205663354620
 Excitation Energies [eV] at current iteration:
 Root      1 :     3.375320057507099   Change is   -0.000000000994945
 Root      2 :     3.916638260834078   Change is   -0.000000003902227
 Root      3 :     5.030346661769272   Change is   -0.000000001773974
 Root      4 :     5.037884738969876   Change is   -0.000000000993399
 Root      5 :     5.214677043517892   Change is   -0.000000000641637
 Root      6 :     5.252487250549733   Change is   -0.000000002677490
 Root      7 :     5.273677938615755   Change is   -0.000000000224440
 Root      8 :     5.301259919780611   Change is   -0.000000000125282
 Root      9 :     5.370139947996721   Change is   -0.000000000921787
 Root     10 :     5.759174488324658   Change is   -0.000000001430430
 Root     11 :     5.792041757887364   Change is   -0.000000001778022
 Root     12 :     5.831674245855843   Change is   -0.000000032479012
 Root     13 :     6.006255500260511   Change is   -0.000000020882969
 Root     14 :     6.105876880793490   Change is   -0.000000001736611
 Root     15 :     6.246355905770535   Change is   -0.000000005095852
 Root     16 :     6.310005227547410   Change is   -0.000000001617585
 Root     17 :     6.341401526858444   Change is   -0.000000056564523
 Root     18 :     6.377830219369145   Change is   -0.000000366852404
 Root     19 :     6.407440844446071   Change is   -0.000000063665038
 Root     20 :     6.509393515917251   Change is   -0.000137364682696
 Iteration     8 Dimension   248 NMult   246 NNew      2
 CISAX will form     2 AO SS matrices at one time.
 NMat=     2 NSing=     2 JSym2X= 0.
 Root      1 has converged.
 Root      2 has converged.
 Root      3 has converged.
 Root      4 has converged.
 Root      5 has converged.
 Root      6 has converged.
 Root      7 has converged.
 Root      8 has converged.
 Root      9 has converged.
 Root     10 has converged.
 Root     11 has converged.
 Root     12 has converged.
 Root     13 has converged.
 Root     14 has converged.
 Root     15 has converged.
 Root     16 has converged.
 Root     17 has converged.
 Root     18 has converged.
 Root     19 has converged.
 Root     20 not converged, maximum delta is    0.004795177177776
 Excitation Energies [eV] at current iteration:
 Root      1 :     3.375320056670464   Change is   -0.000000000836635
 Root      2 :     3.916638244429950   Change is   -0.000000016404128
 Root      3 :     5.030346660571331   Change is   -0.000000001197941
 Root      4 :     5.037884738285440   Change is   -0.000000000684436
 Root      5 :     5.214677041241809   Change is   -0.000000002276083
 Root      6 :     5.252487240210217   Change is   -0.000000010339516
 Root      7 :     5.273677938466278   Change is   -0.000000000149477
 Root      8 :     5.301259919518928   Change is   -0.000000000261684
 Root      9 :     5.370139946628208   Change is   -0.000000001368513
 Root     10 :     5.759174488167770   Change is   -0.000000000156888
 Root     11 :     5.792041755271148   Change is   -0.000000002616215
 Root     12 :     5.831674245150118   Change is   -0.000000000705724
 Root     13 :     6.006255476283120   Change is   -0.000000023977391
 Root     14 :     6.105876880522533   Change is   -0.000000000270957
 Root     15 :     6.246355903487229   Change is   -0.000000002283306
 Root     16 :     6.310005225331573   Change is   -0.000000002215836
 Root     17 :     6.341401465841812   Change is   -0.000000061016633
 Root     18 :     6.377830210525724   Change is   -0.000000008843421
 Root     19 :     6.407440834897914   Change is   -0.000000009548156
 Root     20 :     6.509366570711072   Change is   -0.000026945206179
 Iteration     9 Dimension   250 NMult   248 NNew      2
 CISAX will form     2 AO SS matrices at one time.
 NMat=     2 NSing=     2 JSym2X= 0.
 Root      1 has converged.
 Root      2 has converged.
 Root      3 has converged.
 Root      4 has converged.
 Root      5 has converged.
 Root      6 has converged.
 Root      7 has converged.
 Root      8 has converged.
 Root      9 has converged.
 Root     10 has converged.
 Root     11 has converged.
 Root     12 has converged.
 Root     13 has converged.
 Root     14 has converged.
 Root     15 has converged.
 Root     16 has converged.
 Root     17 has converged.
 Root     18 has converged.
 Root     19 has converged.
 Root     20 not converged, maximum delta is    0.002192084680247
 Excitation Energies [eV] at current iteration:
 Root      1 :     3.375320051855436   Change is   -0.000000004815028
 Root      2 :     3.916638204629987   Change is   -0.000000039799963
 Root      3 :     5.030346659573518   Change is   -0.000000000997813
 Root      4 :     5.037884737674957   Change is   -0.000000000610484
 Root      5 :     5.214677030251268   Change is   -0.000000010990541
 Root      6 :     5.252487163514574   Change is   -0.000000076695644
 Root      7 :     5.273677938170539   Change is   -0.000000000295740
 Root      8 :     5.301259918954451   Change is   -0.000000000564476
 Root      9 :     5.370139940221440   Change is   -0.000000006406768
 Root     10 :     5.759174486240855   Change is   -0.000000001926915
 Root     11 :     5.792041747489040   Change is   -0.000000007782109
 Root     12 :     5.831674227329206   Change is   -0.000000017820913
 Root     13 :     6.006255467700341   Change is   -0.000000008582779
 Root     14 :     6.105876878721337   Change is   -0.000000001801196
 Root     15 :     6.246355900726880   Change is   -0.000000002760349
 Root     16 :     6.310005223673706   Change is   -0.000000001657868
 Root     17 :     6.341401422282248   Change is   -0.000000043559564
 Root     18 :     6.377830194334499   Change is   -0.000000016191226
 Root     19 :     6.407440834267563   Change is   -0.000000000630351
 Root     20 :     6.509360788318508   Change is   -0.000005782392564
 Convergence on energies, max DE= 5.78D-06.
 Convergence on expansion vectors.
 ***********************************************************************
 Excited states from <AA,BB:AA,BB> singles matrix:
 ***********************************************************************
 
 1PDM for each excited state written to RWF  633
 Ground to excited state transition densities written to RWF  633
 Ground to excited state transition electric dipole moments (Au):
       state          X           Y           Z        Dip. S.      Osc.
         1        -0.0231      0.9423     -0.0372      0.8898      0.0736
         2        -0.1601      0.0002      0.0005      0.0256      0.0025
         3        -0.4309     -0.0059      0.0054      0.1857      0.0229
         4        -0.2552      0.0042      0.0328      0.0662      0.0082
         5        -1.2035     -0.0192     -0.0043      1.4488      0.1851
         6        -3.6323     -0.0113      0.0048     13.1937      1.6978
         7         0.0962      0.0590      0.1322      0.0302      0.0039
         8         0.2648     -0.0769      0.0450      0.0781      0.0101
         9        -0.7972     -0.0164      0.0046      0.6359      0.0837
        10        -0.0071     -0.0225     -0.0005      0.0006      0.0001
        11        -0.0817     -0.0607      0.0363      0.0117      0.0017
        12        -0.1369     -0.0105      0.0025      0.0189      0.0027
        13         0.0462     -0.9808     -0.0391      0.9657      0.1421
        14         0.0105     -0.1134     -0.0128      0.0131      0.0020
        15         0.0319     -0.1942     -0.1059      0.0500      0.0076
        16         0.0135      0.0638     -0.4021      0.1659      0.0257
        17         0.0487      0.0109      0.0236      0.0031      0.0005
        18        -0.1441     -0.0086     -0.0027      0.0208      0.0033
        19         0.0004      0.0450      0.0852      0.0093      0.0015
        20         0.3271      0.0269     -0.0169      0.1080      0.0172
 Ground to excited state transition velocity dipole moments (Au):
       state          X           Y           Z        Dip. S.      Osc.
         1         0.0028     -0.1157      0.0046      0.0134      0.0722
         2         0.0231     -0.0000     -0.0001      0.0005      0.0025
         3         0.0788      0.0011     -0.0008      0.0062      0.0224
         4         0.0468     -0.0008     -0.0061      0.0022      0.0080
         5         0.2284      0.0036      0.0007      0.0522      0.1815
         6         0.6939      0.0021     -0.0009      0.4815      1.6628
         7        -0.0184     -0.0111     -0.0250      0.0011      0.0038
         8        -0.0511      0.0145     -0.0084      0.0029      0.0099
         9         0.1556      0.0032     -0.0009      0.0242      0.0818
        10         0.0015      0.0048     -0.0000      0.0000      0.0001
        11         0.0172      0.0130     -0.0076      0.0005      0.0016
        12         0.0289      0.0022     -0.0005      0.0008      0.0026
        13        -0.0101      0.2146      0.0085      0.0462      0.1397
        14        -0.0023      0.0256      0.0028      0.0007      0.0020
        15        -0.0073      0.0437      0.0235      0.0025      0.0073
        16        -0.0032     -0.0148      0.0914      0.0086      0.0247
        17        -0.0114     -0.0025     -0.0054      0.0002      0.0005
        18         0.0335      0.0020      0.0006      0.0011      0.0032
        19        -0.0001     -0.0099     -0.0208      0.0005      0.0015
        20        -0.0776     -0.0064      0.0040      0.0061      0.0169
 Ground to excited state transition magnetic dipole moments (Au):
       state          X           Y           Z
         1         0.2341      0.0315     -0.0125
         2        -0.0092     -0.0218      0.0695
         3        -0.1215     -0.0237     -1.1576
         4         0.1615     -0.0124     -0.8285
         5        -0.0186     -0.1621     -1.1067
         6         0.0191     -0.4741      0.5957
         7         0.1273      0.0408     -0.1847
         8        -0.0905      0.0018      0.1061
         9        -0.0098     -0.0791     -0.2743
        10         0.1020     -0.0205     -0.0156
        11        -0.3409      0.0064      0.0131
        12         0.0070      0.6660      0.0320
        13        -0.0617     -0.0357     -0.0115
        14        -0.1174     -0.0115      0.0307
        15        -0.0273     -0.0056      0.0055
        16         0.0129      0.0179      0.0050
        17        -0.0008     -0.0100      0.0139
        18        -0.0014     -0.5158     -0.0639
        19        -0.0311     -0.0038      0.0025
        20         0.0004     -0.0562      0.2049
 Ground to excited state transition velocity quadrupole moments (Au):
       state          XX          YY          ZZ          XY          XZ          YZ
         1         0.0609     -0.0207     -0.0089     -0.0001     -0.0035      0.0871
         2         0.0036      0.0005     -0.0009      0.0101      0.0199     -0.0050
         3         0.0331      0.0096     -0.0317     -0.6202      0.0228     -0.0913
         4        -0.0074     -0.0281      0.0460     -0.4504      0.0084      0.1261
         5         0.0301     -0.0208      0.0069     -0.3590      0.0882      0.0251
         6         0.0155     -0.0040     -0.0012      0.2059      0.2926      0.0227
         7        -0.0121      0.0560     -0.0517     -0.0574     -0.0237     -0.0615
         8         0.1831     -0.0266     -0.0758      0.0380     -0.0039      0.1101
         9         0.0056      0.0278     -0.0317      0.0112      0.0613      0.0162
        10        -0.1062      0.1186     -0.0019     -0.0034      0.0196      0.0700
        11        -0.0457      0.0222      0.0249      0.0063     -0.0129     -0.2649
        12        -0.0120      0.0154     -0.0023      0.0173     -0.6096      0.0121
        13         0.0645     -0.0120      0.0292      0.0075      0.0301      0.0004
        14         0.1672     -0.0227     -0.0518      0.0097      0.0190      0.0014
        15         0.0139     -0.0350     -0.0145     -0.0050      0.0054      0.0921
        16         0.0117     -0.0161      0.0663     -0.0008     -0.0159      0.0018
        17         0.1242     -0.0397      0.0195     -0.1201     -0.0281     -0.0026
        18        -0.0337     -0.0000     -0.0014     -0.0262      0.4236     -0.0061
        19        -0.4789      0.0989     -0.0327     -0.0138      0.0039     -0.0342
        20         0.1012     -0.0114      0.0117      0.1554      0.0333      0.0008
 <0|del|b> * <b|rxdel|0> + <0|del|b> * <b|delr+rdel|0>
 Rotatory Strengths (R) in cgs (10**-40 erg-esu-cm/Gauss)
       state          XX          YY          ZZ    R(velocity)    E-M Angle
         1       -11.7158      2.4386     -8.0293     -5.7688       96.36
         2        -0.0139     -0.8194     -0.2347     -0.3560       97.38
         3         2.7261    -31.2207     -4.5603    -11.0183       95.40
         4        14.8626     30.0651      3.1659     16.0312       71.56
         5        -3.6310      1.7370    -18.8747     -6.9229       91.26
         6        -4.2466     52.5322     -5.2367     14.3496       88.73
         7         9.7416      3.5981     -6.6992      2.2135       76.01
         8        -2.0444     -2.8527     18.5300      4.5443       59.93
         9        -0.3843      2.2412     -7.3648     -1.8360       91.98
        10        -0.3205      0.4256      0.0719      0.0590       90.00
        11         0.1723    -17.4306     -2.3162     -6.5248      138.98
        12         4.5751      0.9014     -0.0410      1.8118       85.11
        13       -22.6846      0.7356     -0.9010     -7.6167      117.36
        14        -1.0484      0.5196      0.7412      0.0708       90.00
        15        -0.7259     -0.3465      1.3249      0.0842       90.00
        16        -0.1806      0.7352     -0.0982      0.1521       85.90
        17         0.7942     -1.0325      0.1149     -0.0411       90.00
        18        -2.9321     -0.4172     -0.0447     -1.1313       93.70
        19         0.4671     -0.4955     -0.0020     -0.0101       90.00
        20         2.9749      0.1556      0.2607      1.1304       86.03
 1/2[<0|r|b>*<b|rxdel|0> + (<0|rxdel|b>*<b|r|0>)*]
 Rotatory Strengths (R) in cgs (10**-40 erg-esu-cm/Gauss)
       state          XX          YY          ZZ     R(length)
         1         3.8176    -20.9729     -0.3283     -5.8279
         2        -1.0408      0.0028     -0.0267     -0.3549
         3       -37.0212     -0.0990      4.4134    -10.9023
         4        29.1412      0.0365     19.2359     16.1378
         5       -15.7991     -2.2035     -3.3839     -7.1288
         6        49.1222     -3.7816     -2.0028     14.4459
         7        -8.6635     -1.7008     17.2654      2.3004
         8        16.9452      0.0989     -3.3805      4.5546
         9        -5.5296     -0.9160      0.8988     -1.8489
        10         0.5113     -0.3265     -0.0058      0.0596
        11       -19.6997      0.2756     -0.3355     -6.5865
        12         0.6788      4.9513     -0.0559      1.8581
        13         2.0131    -24.7501     -0.3180     -7.6850
        14         0.8730     -0.9188      0.2774      0.0772
        15         0.6164     -0.7751      0.4117      0.0843
        16        -0.1232     -0.8062      1.4159      0.1622
        17         0.0265      0.0773     -0.2324     -0.0429
        18        -0.1472     -3.1503     -0.1211     -1.1395
        19         0.0082      0.1215     -0.1494     -0.0066
        20        -0.0925      1.0689      2.4456      1.1407
  1/2[<0|del|b>*<b|r|0> + (<0|r|b>*<b|del|0>)*] (Au)
       state          X           Y           Z        Dip. S.   Osc.(frdel)
         1        -0.0001     -0.1091     -0.0002      0.1093      0.0729
         2        -0.0037     -0.0000     -0.0000      0.0037      0.0025
         3        -0.0340     -0.0000     -0.0000      0.0340      0.0227
         4        -0.0119     -0.0000     -0.0002      0.0121      0.0081
         5        -0.2748     -0.0001     -0.0000      0.2749      0.1833
         6        -2.5203     -0.0000     -0.0000      2.5203      1.6802
         7        -0.0018     -0.0007     -0.0033      0.0057      0.0038
         8        -0.0135     -0.0011     -0.0004      0.0150      0.0100
         9        -0.1241     -0.0001     -0.0000      0.1241      0.0827
        10        -0.0000     -0.0001      0.0000      0.0001      0.0001
        11        -0.0014     -0.0008     -0.0003      0.0025      0.0016
        12        -0.0040     -0.0000     -0.0000      0.0040      0.0027
        13        -0.0005     -0.2105     -0.0003      0.2113      0.1409
        14        -0.0000     -0.0029     -0.0000      0.0030      0.0020
        15        -0.0002     -0.0085     -0.0025      0.0112      0.0075
        16        -0.0000     -0.0009     -0.0367      0.0377      0.0252
        17        -0.0006     -0.0000     -0.0001      0.0007      0.0005
        18        -0.0048     -0.0000     -0.0000      0.0048      0.0032
        19        -0.0000     -0.0004     -0.0018      0.0022      0.0015
        20        -0.0254     -0.0002     -0.0001      0.0256      0.0171

 Excitation energies and oscillator strengths:
 
 Excited State   1:      Singlet-A      3.3753 eV  367.33 nm  f=0.0736  <S**2>=0.000
      47 -> 48         0.70010
 This state for optimization and/or second-order correction.
 Total Energy, E(TD-HF/TD-DFT) =  -539.128048028    
 Copying the excited state density for this state as the 1-particle RhoCI density.
 
 Excited State   2:      Singlet-A      3.9166 eV  316.56 nm  f=0.0025  <S**2>=0.000
      46 -> 48         0.51297
      47 -> 50        -0.44767
      47 -> 51        -0.15402
 
 Excited State   3:      Singlet-A      5.0303 eV  246.47 nm  f=0.0229  <S**2>=0.000
      45 -> 48         0.48006
      47 -> 49        -0.38941
      47 -> 55         0.28161
 
 Excited State   4:      Singlet-A      5.0379 eV  246.10 nm  f=0.0082  <S**2>=0.000
      45 -> 48         0.36773
      47 -> 49         0.52790
      47 -> 53         0.13777
      47 -> 55         0.18251
 
 Excited State   5:      Singlet-A      5.2147 eV  237.76 nm  f=0.1851  <S**2>=0.000
      45 -> 48        -0.34106
      46 -> 48         0.14053
      47 -> 50         0.21033
      47 -> 55         0.53577
 
 Excited State   6:      Singlet-A      5.2525 eV  236.05 nm  f=1.6978  <S**2>=0.000
      46 -> 48         0.43692
      47 -> 50         0.46804
      47 -> 55        -0.25916
 
 Excited State   7:      Singlet-A      5.2737 eV  235.10 nm  f=0.0039  <S**2>=0.000
      47 -> 52         0.49392
      47 -> 56        -0.45961
 
 Excited State   8:      Singlet-A      5.3013 eV  233.88 nm  f=0.0101  <S**2>=0.000
      47 -> 52         0.45599
      47 -> 56         0.49537
 
 Excited State   9:      Singlet-A      5.3701 eV  230.88 nm  f=0.0837  <S**2>=0.000
      45 -> 49        -0.14300
      47 -> 50        -0.11938
      47 -> 51         0.63575
      47 -> 58        -0.10902
 
 Excited State  10:      Singlet-A      5.7592 eV  215.28 nm  f=0.0001  <S**2>=0.000
      43 -> 48         0.27911
      45 -> 50         0.40476
      45 -> 51         0.11169
      46 -> 55        -0.38552
      47 -> 53        -0.12950
      47 -> 67         0.16802
 
 Excited State  11:      Singlet-A      5.7920 eV  214.06 nm  f=0.0017  <S**2>=0.000
      45 -> 51         0.14620
      47 -> 49        -0.16910
      47 -> 53         0.60906
      47 -> 59        -0.18234
 
 Excited State  12:      Singlet-A      5.8317 eV  212.60 nm  f=0.0027  <S**2>=0.000
      45 -> 52         0.12296
      47 -> 54         0.66295
      47 -> 74        -0.11013
 
 Excited State  13:      Singlet-A      6.0063 eV  206.43 nm  f=0.1421  <S**2>=0.000
      45 -> 55         0.11148
      46 -> 50         0.64006
      46 -> 51         0.19413
      47 -> 48        -0.10591
 
 Excited State  14:      Singlet-A      6.1059 eV  203.06 nm  f=0.0020  <S**2>=0.000
      47 -> 53         0.19360
      47 -> 59         0.60461
      47 -> 61         0.16266
      47 -> 62         0.16871
 
 Excited State  15:      Singlet-A      6.2464 eV  198.49 nm  f=0.0076  <S**2>=0.000
      42 -> 48         0.10071
      43 -> 48         0.11222
      44 -> 48         0.63179
      45 -> 55        -0.10338
      47 -> 64        -0.16954
 
 Excited State  16:      Singlet-A      6.3100 eV  196.49 nm  f=0.0257  <S**2>=0.000
      45 -> 54        -0.11219
      46 -> 51        -0.10764
      47 -> 57         0.64033
      47 -> 61        -0.10064
      47 -> 77        -0.10472
 
 Excited State  17:      Singlet-A      6.3414 eV  195.52 nm  f=0.0005  <S**2>=0.000
      45 -> 53         0.12420
      47 -> 51         0.11472
      47 -> 58         0.65295
      47 -> 78        -0.10700
 
 Excited State  18:      Singlet-A      6.3778 eV  194.40 nm  f=0.0033  <S**2>=0.000
      46 -> 49         0.64723
      46 -> 53         0.11059
      46 -> 56        -0.10829
      46 -> 59        -0.12714
 
 Excited State  19:      Singlet-A      6.4074 eV  193.50 nm  f=0.0015  <S**2>=0.000
      40 -> 55         0.11400
      42 -> 48         0.64269
      43 -> 48         0.16224
      44 -> 48        -0.11352
 
 Excited State  20:      Singlet-A      6.5094 eV  190.47 nm  f=0.0172  <S**2>=0.000
      43 -> 55         0.12306
      44 -> 50        -0.21514
      46 -> 49         0.11810
      46 -> 56         0.58758
      46 -> 64         0.12601
 SavETr:  write IOETrn=   770 NScale= 10 NData=  16 NLR=1 NState=   20 LETran=     370.
 Leave Link  914 at Fri May  3 17:44:58 2024, MaxMem=   104857600 cpu:            5035.9 elap:            5066.4
 (Enter /curc/sw/gaussian/16/g16/l601.exe)
 Copying SCF densities to generalized density rwf, IOpCl= 0 IROHF=0.

 **********************************************************************

            Population analysis using the SCF density.

 **********************************************************************

 Orbital symmetries:
       Occupied  (A) (A) (A) (A) (A) (A) (A) (A) (A) (A) (A) (A)
                 (A) (A) (A) (A) (A) (A) (A) (A) (A) (A) (A) (A)
                 (A) (A) (A) (A) (A) (A) (A) (A) (A) (A) (A) (A)
                 (A) (A) (A) (A) (A) (A) (A) (A) (A) (A) (A)
       Virtual   (A) (A) (A) (A) (A) (A) (A) (A) (A) (A) (A) (A)
                 (A) (A) (A) (A) (A) (A) (A) (A) (A) (A) (A) (A)
                 (A) (A) (A) (A) (A) (A) (A) (A) (A) (A) (A) (A)
                 (A) (A) (A) (A) (A) (A) (A) (A) (A) (A) (A) (A)
                 (A) (A) (A) (A) (A) (A) (A) (A) (A) (A) (A) (A)
                 (A) (A) (A) (A) (A) (A) (A) (A) (A) (A) (A) (A)
                 (A) (A) (A) (A) (A) (A) (A) (A) (A) (A) (A) (A)
                 (A) (A) (A) (A) (A) (A) (A) (A) (A) (A) (A) (A)
                 (A) (A) (A) (A) (A) (A) (A) (A) (A) (A) (A) (A)
                 (A) (A) (A) (A) (A) (A) (A) (A) (A) (A) (A) (A)
                 (A) (A) (A) (A) (A) (A) (A) (A) (A) (A) (A) (A)
                 (A) (A) (A) (A) (A) (A) (A) (A) (A) (A) (A) (A)
                 (A) (A) (A) (A) (A) (A) (A) (A) (A) (A) (A) (A)
                 (A) (A) (A) (A) (A) (A) (A) (A) (A) (A) (A) (A)
                 (A) (A) (A) (A) (A) (A) (A) (A) (A) (A) (A) (A)
                 (A) (A) (A) (A) (A) (A) (A) (A) (A) (A) (A) (A)
                 (A) (A) (A) (A) (A) (A) (A) (A) (A) (A) (A) (A)
                 (A) (A) (A) (A) (A) (A) (A) (A) (A) (A) (A) (A)
                 (A) (A) (A) (A) (A) (A) (A) (A) (A) (A) (A) (A)
                 (A) (A) (A) (A) (A) (A) (A) (A) (A) (A) (A) (A)
                 (A) (A) (A) (A) (A) (A) (A) (A) (A) (A) (A) (A)
                 (A) (A) (A) (A) (A) (A) (A) (A) (A) (A) (A) (A)
                 (A) (A) (A) (A) (A) (A) (A) (A) (A) (A) (A) (A)
                 (A) (A) (A) (A) (A) (A) (A) (A) (A) (A) (A) (A)
                 (A) (A) (A) (A) (A) (A) (A) (A) (A) (A) (A) (A)
                 (A) (A) (A) (A) (A) (A) (A) (A) (A) (A) (A) (A)
[...]
 Alpha virt. eigenvalues --    0.98637   0.99459   0.99806   1.00260   1.02488
 Alpha virt. eigenvalues --    1.05413   1.05930   1.07851   1.09021   1.10334
 Alpha virt. eigenvalues --    1.11208   1.12255   1.13913   1.14881   1.15938
 Alpha virt. eigenvalues --    1.17621   1.19742   1.19955   1.23532   1.24502
 Alpha virt. eigenvalues --    1.29930   1.30013   1.31156   1.31676   1.32509
 Alpha virt. eigenvalues --    1.33844   1.34751   1.35395   1.36080   1.36592
 Alpha virt. eigenvalues --    1.37374   1.39113   1.39166   1.41090   1.41588
 Alpha virt. eigenvalues --    1.42353   1.44014   1.44272   1.44558   1.45281
 Alpha virt. eigenvalues --    1.46930   1.47115   1.47859   1.48134   1.48562
 Alpha virt. eigenvalues --    1.50826   1.52379   1.53704   1.54236   1.54541
 Alpha virt. eigenvalues --    1.55676   1.56139   1.57116   1.57894   1.58765
 Alpha virt. eigenvalues --    1.59475   1.60229   1.61387   1.62060   1.62508
 Alpha virt. eigenvalues --    1.63670   1.64044   1.64776   1.65106   1.65648
 Alpha virt. eigenvalues --    1.67953   1.69697   1.70023   1.70575   1.71468
 Alpha virt. eigenvalues --    1.73004   1.73450   1.74266   1.75703   1.75859
 Alpha virt. eigenvalues --    1.76255   1.77566   1.78093   1.78722   1.80762
 Alpha virt. eigenvalues --    1.81590   1.82827   1.83367   1.83889   1.85284
 Alpha virt. eigenvalues --    1.87265   1.87858   1.88071   1.89375   1.90321
 Alpha virt. eigenvalues --    1.91066   1.91884   1.92903   1.93284   1.93753
 Alpha virt. eigenvalues --    1.95622   1.97593   1.97863   1.99276   1.99584
 Alpha virt. eigenvalues --    1.99792   2.00642   2.03168   2.03922   2.05376
 Alpha virt. eigenvalues --    2.06572   2.06910   2.08238   2.09292   2.09631
 Alpha virt. eigenvalues --    2.10667   2.12184   2.13163   2.14214   2.14784
 Alpha virt. eigenvalues --    2.14874   2.17958   2.18647   2.19087   2.19283
 Alpha virt. eigenvalues --    2.19853   2.21174   2.22560   2.23279   2.23992
 Alpha virt. eigenvalues --    2.25005   2.26859   2.28333   2.30875   2.31192
 Alpha virt. eigenvalues --    2.35310   2.38235   2.40166   2.41122   2.44798
 Alpha virt. eigenvalues --    2.47796   2.49840   2.53503   2.54238   2.55857
 Alpha virt. eigenvalues --    2.56529   2.57084   2.59140   2.63673   2.65921
 Alpha virt. eigenvalues --    2.68609   2.69226   2.71685   2.73220   2.75287
 Alpha virt. eigenvalues --    2.82076   2.84088   2.87779   2.90882   2.91874
 Alpha virt. eigenvalues --    2.93974   2.96588   3.00941   3.01577   3.09981
 Alpha virt. eigenvalues --    3.15076   3.22393   3.30898   3.42668   3.44380
 Alpha virt. eigenvalues --    3.47112   3.49382   3.57322   3.63186   4.09533
 Alpha virt. eigenvalues --    4.45363   4.52770
          Condensed to atoms (all electrons):
               1          2          3          4          5          6
     1  C   37.876528  -8.532165  -8.527830  -0.826377  -5.736776  -0.796526
     2  C   -8.532165  34.133487   0.879590  -8.762488  -0.685228  -1.793355
     3  C   -8.527830   0.879590  34.021284  -1.703810  -0.549580  -9.458509
     4  C   -0.826377  -8.762488  -1.703810  32.677779  -6.051755   0.488335
     5  C   -5.736776  -0.685228  -0.549580  -6.051755  29.809578  -5.829245
     6  C   -0.796526  -1.793355  -9.458509   0.488335  -5.829245  32.641547
     7  C    3.093270   0.524661  -9.971713  -0.984159  -3.781336   0.677150
     8  C   -3.097873  -0.300735   3.829315  -0.199826   1.690938  -4.629434
     9  C    2.025025  -0.126778  -4.826121  -0.273358  -2.493368   3.220389
    10  C   -4.017885  -1.510544   0.379263  -0.332542   3.279406  -9.156515
    11  C    3.549570  -9.950967   0.237207   0.459595  -3.856682  -0.829347
    12  C   -3.191093   4.050408  -0.317653  -5.032345   1.766848  -0.182985
    13  C    2.151255  -5.390274  -0.165642   3.095367  -2.726197  -0.264458
    14  C   -4.298379   0.274277  -1.192418  -9.066061   3.124712  -0.456798
    15  H   -0.275400   1.871364  -0.164901  -0.321159   0.054012   0.032540
    16  H    0.037143  -0.181912  -0.015598   0.072003  -0.018260   0.008385
    17  H   -0.010445   0.049453   0.010876  -0.226069   0.067921  -0.019887
    18  H    0.073160  -0.138904   0.030596   1.732750  -0.245234  -0.118258
    19  H   -3.813488   1.030821   0.984704  -0.446660   0.157333  -0.500264
    20  H    0.068255   0.031670  -0.131373  -0.093139  -0.215510   1.823698
    21  H   -0.003659   0.013757   0.035752  -0.021214   0.054951  -0.252853
    22  H   -0.233138  -0.138354   1.890370   0.020918   0.041515  -0.310141
    23  H    0.025771  -0.018296  -0.134003   0.014905  -0.013718   0.050601
    24  H    0.146628  -0.378398  -0.301711   0.692497  -2.796662   0.659503
               7          8          9         10         11         12
     1  C    3.093270  -3.097873   2.025025  -4.017885   3.549570  -3.191093
     2  C    0.524661  -0.300735  -0.126778  -1.510544  -9.950967   4.050408
     3  C   -9.971713   3.829315  -4.826121   0.379263   0.237207  -0.317653
     4  C   -0.984159  -0.199826  -0.273358  -0.332542   0.459595  -5.032345
     5  C   -3.781336   1.690938  -2.493368   3.279406  -3.856682   1.766848
     6  C    0.677150  -4.629434   3.220389  -9.156515  -0.829347  -0.182985
     7  C   29.515653  -9.387747   6.725479 -10.154914   1.207864   0.386173
     8  C   -9.387747  16.759005  -5.779658   6.975985   0.390187  -0.049290
     9  C    6.725479  -5.779658  16.810039  -9.290451  -0.183242   0.096693
    10  C  -10.154914   6.975985  -9.290451  30.354873  -0.789018  -0.162179
    11  C    1.207864   0.390187  -0.183242  -0.789018  29.753851  -9.649048
    12  C    0.386173  -0.049290   0.096693  -0.162179  -9.649048  17.323712
    13  C   -0.164498   0.092501  -0.064950   0.396086   6.837646  -5.899373
    14  C   -0.814937  -0.159799   0.399398   1.286954 -10.247390   6.952294
    15  H   -0.025588   0.010871  -0.010416   0.009051  -3.396519   1.319727
    16  H    0.003712  -0.002559   0.002554  -0.003807   1.078215  -1.914235
    17  H   -0.003094   0.002580  -0.003282   0.002808  -0.420336   0.691875
    18  H    0.013527  -0.010016   0.010947  -0.043338   0.368732  -0.416021
    19  H    0.630787   0.158565   0.049119  -0.141004   0.575680   0.138244
    20  H    0.379339  -0.432060   1.114179  -3.437926   0.012905  -0.010555
    21  H   -0.388799   0.712490  -1.980377   1.260988  -0.001730   0.002700
    22  H   -3.377282   1.234154  -0.410049   0.352877  -0.011878   0.015201
    23  H    1.028659  -1.903871   0.729609  -0.359534   0.000308  -0.002634
    24  H   -0.129840   0.053106   0.085130   0.483959  -0.139983   0.053118
              13         14         15         16         17         18
     1  C    2.151255  -4.298379  -0.275400   0.037143  -0.010445   0.073160
     2  C   -5.390274   0.274277   1.871364  -0.181912   0.049453  -0.138904
     3  C   -0.165642  -1.192418  -0.164901  -0.015598   0.010876   0.030596
     4  C    3.095367  -9.066061  -0.321159   0.072003  -0.226069   1.732750
     5  C   -2.726197   3.124712   0.054012  -0.018260   0.067921  -0.245234
     6  C   -0.264458  -0.456798   0.032540   0.008385  -0.019887  -0.118258
     7  C   -0.164498  -0.814937  -0.025588   0.003712  -0.003094   0.013527
     8  C    0.092501  -0.159799   0.010871  -0.002559   0.002580  -0.010016
     9  C   -0.064950   0.399398  -0.010416   0.002554  -0.003282   0.010947
    10  C    0.396086   1.286954   0.009051  -0.003807   0.002808  -0.043338
    11  C    6.837646 -10.247390  -3.396519   1.078215  -0.420336   0.368732
    12  C   -5.899373   6.952294   1.319727  -1.914235   0.691875  -0.416021
    13  C   17.708290  -9.357565  -0.411779   0.739009  -2.038089   1.176861
    14  C   -9.357565  30.636451   0.371230  -0.385936   1.320127  -3.330648
    15  H   -0.411779   0.371230   3.361751  -0.201079  -0.028140   0.014068
    16  H    0.739009  -0.385936  -0.201079   2.750605  -0.169065  -0.026543
    17  H   -2.038089   1.320127  -0.028140  -0.169065   2.783896  -0.227920
    18  H    1.176861  -3.330648   0.014068  -0.026543  -0.227920   3.281323
    19  H    0.048384  -0.125423  -0.247690   0.014029  -0.001835   0.003380
    20  H    0.012591  -0.041756  -0.000379  -0.000053  -0.000342   0.009621
    21  H   -0.003399  -0.000528  -0.000023   0.000060  -0.000069  -0.000329
    22  H   -0.010924   0.002240   0.014036  -0.000322  -0.000078  -0.000280
    23  H    0.002406  -0.001703  -0.000428  -0.000046   0.000063  -0.000071
    24  H    0.114214   0.549551   0.000407  -0.001308   0.010651  -0.204019
              19         20         21         22         23         24
     1  C   -3.813488   0.068255  -0.003659  -0.233138   0.025771   0.146628
     2  C    1.030821   0.031670   0.013757  -0.138354  -0.018296  -0.378398
     3  C    0.984704  -0.131373   0.035752   1.890370  -0.134003  -0.301711
     4  C   -0.446660  -0.093139  -0.021214   0.020918   0.014905   0.692497
     5  C    0.157333  -0.215510   0.054951   0.041515  -0.013718  -2.796662
     6  C   -0.500264   1.823698  -0.252853  -0.310141   0.050601   0.659503
     7  C    0.630787   0.379339  -0.388799  -3.377282   1.028659  -0.129840
     8  C    0.158565  -0.432060   0.712490   1.234154  -1.903871   0.053106
     9  C    0.049119   1.114179  -1.980377  -0.410049   0.729609   0.085130
    10  C   -0.141004  -3.437926   1.260988   0.352877  -0.359534   0.483959
    11  C    0.575680   0.012905  -0.001730  -0.011878   0.000308  -0.139983
    12  C    0.138244  -0.010555   0.002700   0.015201  -0.002634   0.053118
    13  C    0.048384   0.012591  -0.003399  -0.010924   0.002406   0.114214
    14  C   -0.125423  -0.041756  -0.000528   0.002240  -0.001703   0.549551
    15  H   -0.247690  -0.000379  -0.000023   0.014036  -0.000428   0.000407
    16  H    0.014029  -0.000053   0.000060  -0.000322  -0.000046  -0.001308
    17  H   -0.001835  -0.000342  -0.000069  -0.000078   0.000063   0.010651
    18  H    0.003380   0.009621  -0.000329  -0.000280  -0.000071  -0.204019
    19  H    3.819779   0.002928  -0.002136  -0.251593   0.014334   0.011614
    20  H    0.002928   3.302898  -0.246480   0.014212  -0.025741  -0.178237
    21  H   -0.002136  -0.246480   2.796154  -0.026444  -0.165694   0.010192
    22  H   -0.251593   0.014212  -0.026444   3.362022  -0.199402  -0.000234
    23  H    0.014334  -0.025741  -0.165694  -0.199402   2.742433  -0.000846
    24  H    0.011614  -0.178237   0.010192  -0.000234  -0.000846   3.244912
 Mulliken charges:
               1
     1  C    0.314427
     2  C    1.048910
     3  C    1.161905
     4  C    1.086814
     5  C    0.952337
     6  C    0.996427
     7  C    0.997632
     8  C    0.043171
     9  C    0.173490
    10  C    0.617406
    11  C    1.004380
    12  C    0.030418
    13  C    0.122538
    14  C    0.562106
    15  H   -0.975556
    16  H   -0.784989
    17  H   -0.791598
    18  H   -0.953384
    19  H   -1.109609
    20  H   -0.958742
    21  H   -0.793311
    22  H   -0.977424
    23  H   -0.783102
    24  H   -0.984245
 Sum of Mulliken charges =   0.00000
 Mulliken charges with hydrogens summed into heavy atoms:
               1
     1  C   -0.795181
     2  C    1.048910
     3  C    1.161905
     4  C    1.086814
     5  C   -0.031908
     6  C    0.996427
     7  C    0.020208
     8  C   -0.739931
     9  C   -0.619821
    10  C   -0.341336
    11  C    0.028824
    12  C   -0.754571
    13  C   -0.669060
    14  C   -0.391278
 Electronic spatial extent (au):  <R**2>=           2833.7006
 Charge=             -0.0000 electrons
 Dipole moment (field-independent basis, Debye):
    X=             -0.0091    Y=             -0.0845    Z=              0.4409  Tot=              0.4490
 Quadrupole moment (field-independent basis, Debye-Ang):
   XX=            -73.0780   YY=            -72.3870   ZZ=            -88.6350
   XY=             -0.0823   XZ=              0.0902   YZ=              0.2965
 Traceless Quadrupole moment (field-independent basis, Debye-Ang):
   XX=              4.9554   YY=              5.6463   ZZ=            -10.6016
   XY=             -0.0823   XZ=              0.0902   YZ=              0.2965
 Octapole moment (field-independent basis, Debye-Ang**2):
  XXX=              0.0637  YYY=             -0.3163  ZZZ=              0.4500  XYY=             -0.1190
  XXY=             -1.0874  XXZ=             14.2385  XZZ=              0.0112  YZZ=              0.0194
  YYZ=              0.5329  XYZ=              1.3511
 Hexadecapole moment (field-independent basis, Debye-Ang**3):
 XXXX=          -2855.8005 YYYY=           -710.6211 ZZZZ=           -129.1771 XXXY=             -1.8273
 XXXZ=             -0.1562 YYYX=             -0.5724 YYYZ=              1.5855 ZZZX=              0.2221
 ZZZY=              0.5772 XXYY=           -609.0580 XXZZ=           -602.1668 YYZZ=           -167.9192
 XXYZ=              3.8610 YYXZ=              1.0275 ZZXY=              0.6015
 N-N= 7.664648408551D+02 E-N=-2.782770391604D+03  KE= 5.360672619087D+02
 Leave Link  601 at Fri May  3 17:44:59 2024, MaxMem=   104857600 cpu:               0.1 elap:               0.2
 (Enter /curc/sw/gaussian/16/g16/l9999.exe)
 Electronic transition elements 
                 1             2             3             4             5 
      1  -0.539128D+03 -0.539108D+03 -0.539067D+03 -0.539067D+03 -0.539060D+03
      2   0.199695D+00 -0.136450D+00 -0.367144D+00 -0.201984D+00 -0.103490D+01
      3   0.298965D+00  0.833908D-01  0.225431D+00  0.159378D+00  0.613450D+00
      4  -0.872071D+00 -0.706286D-02 -0.115652D-01 -0.144892D-02 -0.379181D-01
      5  -0.245179D-01  0.196574D-01  0.672371D-01  0.369644D-01  0.196315D+00
      6  -0.367165D-01 -0.120203D-01 -0.411051D-01 -0.292732D-01 -0.116489D+00
      7   0.107133D+00  0.101484D-02  0.215520D-02  0.314661D-03  0.719934D-02
      8   0.202165D+00  0.183216D-01 -0.636788D+00 -0.242361D+00 -0.560405D+00
      9  -0.120476D+00  0.521263D-01 -0.855848D+00 -0.739675D+00 -0.915575D+00
     10  -0.233583D-01  0.483141D-01 -0.466256D+00 -0.326730D+00 -0.314804D+00
     11   0.584396D-01  0.210723D-01 -0.250703D+00 -0.155336D+00 -0.573868D-01
     12   0.574845D-01 -0.219620D-01  0.139200D+00  0.239759D+00  0.761690D-01
     13  -0.845000D-01  0.395930D-02  0.122515D+00 -0.739068D-01 -0.259055D-02
     14  -0.291678D-02  0.661185D-02 -0.144446D+00 -0.542521D-02 -0.216484D-01
     15  -0.228177D-01  0.117730D-02  0.503995D+00  0.323385D+00  0.307127D+00
     16  -0.474871D-01  0.367077D-02 -0.266693D+00 -0.268674D+00 -0.196637D+00
                 6             7             8             9            10 
      1  -0.539059D+03 -0.539058D+03 -0.539057D+03 -0.539055D+03 -0.539040D+03
      2  -0.310364D+01  0.157177D+00  0.227464D+00 -0.683053D+00 -0.119411D-01
      3   0.188117D+01  0.739422D-01 -0.127556D+00  0.411047D+00 -0.429815D-02
      4  -0.149469D+00  0.580463D-02  0.100397D+00 -0.186886D-01  0.198970D-01
      5   0.592895D+00 -0.299416D-01 -0.437977D-01  0.133323D+00  0.244832D-02
      6  -0.359318D+00 -0.138716D-01  0.247172D-01 -0.802140D-01  0.812942D-03
      7   0.285966D-01 -0.113508D-02 -0.189458D-01  0.369532D-02 -0.430845D-02
      8   0.168652D+00  0.348695D-01 -0.285048D-01 -0.153089D+00  0.748594D-01
      9   0.299665D+00 -0.197595D+00  0.130987D+00 -0.237261D+00 -0.720214D-01
     10   0.679531D+00 -0.108336D+00  0.385495D-01 -0.428899D-01  0.166515D-01
     11   0.331897D+00 -0.730986D-01  0.154679D+00  0.554688D-01 -0.406925D-01
     12  -0.295107D+00 -0.221687D-01  0.472946D-01 -0.603466D-01  0.583220D-02
     13  -0.263834D-01  0.874605D-01 -0.121227D+00  0.648131D-02  0.453124D-01
     14   0.160323D+00 -0.492901D-01 -0.676003D-01  0.227250D-01  0.888049D-01
     15  -0.530240D-01  0.308931D-01 -0.658439D-01 -0.265578D-02 -0.430168D-01
     16   0.344216D-01 -0.220027D-01 -0.650563D-01 -0.339863D-01 -0.797489D-01
                11            12            13            14            15 
      1  -0.539039D+03 -0.539038D+03 -0.539031D+03 -0.539028D+03 -0.539023D+03
      2  -0.685140D-01 -0.118498D+00 -0.224390D+00 -0.252816D-01 -0.696611D-01
      3   0.504977D-01  0.693377D-01 -0.383942D+00 -0.535655D-01 -0.165036D+00
      4   0.666137D-01  0.447886D-02  0.876331D+00  0.981048D-01  0.133678D+00
      5   0.145192D-01  0.250195D-01  0.490518D-01  0.572710D-02  0.154482D-01
      6  -0.105520D-01 -0.146508D-01  0.839786D-01  0.120350D-01  0.369559D-01
      7  -0.141997D-01 -0.921445D-03 -0.191802D+00 -0.221533D-01 -0.301694D-01
      8  -0.283657D+00  0.187600D+00 -0.668578D-01 -0.892242D-01 -0.222422D-01
      9   0.188993D+00  0.245105D+00  0.109138D-01  0.811271D-01  0.165764D-01
     10  -0.155561D-01 -0.591028D+00  0.248650D-01  0.179635D-01  0.619889D-02
     11  -0.946232D-01 -0.472271D+00  0.791174D-01  0.129102D+00  0.280496D-01
     12  -0.125947D+00  0.494305D+00  0.706824D-02 -0.790724D-02  0.367657D-01
     13   0.221953D+00 -0.209077D-01 -0.449733D-02 -0.285038D-01 -0.100405D+00
     14  -0.664204D-01 -0.253234D+00 -0.463083D-02 -0.841073D-01  0.195258D-01
     15   0.700916D-01 -0.250696D+00  0.162105D-01  0.101227D-02 -0.168488D-01
     16   0.160017D+00  0.106420D+00  0.970074D-02 -0.135053D-01 -0.507360D-01
                16            17            18            19            20 
      1  -0.539020D+03 -0.539019D+03 -0.539018D+03 -0.539017D+03 -0.539013D+03
      2  -0.155497D+00  0.551107D-01 -0.126495D+00  0.503964D-01  0.278532D+00
      3  -0.301969D+00 -0.302722D-02  0.696298D-01  0.819543D-01 -0.173678D+00
      4  -0.224870D+00  0.205258D-02  0.310215D-03 -0.531236D-02 -0.169089D-01
      5   0.351840D-01 -0.128282D-01  0.294052D-01 -0.120453D-01 -0.660842D-01
      6   0.685838D-01  0.837855D-03 -0.161643D-01 -0.196182D-01  0.411990D-01
      7   0.513867D-01 -0.436729D-03 -0.636675D-04  0.323181D-03  0.401269D-02
      8   0.177311D-01  0.318885D-02 -0.159711D+00 -0.264361D-01  0.795312D-01
      9   0.325752D-02  0.802054D-02 -0.222685D+00  0.167988D-01  0.142132D+00
     10  -0.135760D-01  0.148418D-01  0.441659D+00  0.311638D-02  0.136370D+00
     11   0.897077D-02  0.182474D-01  0.291984D+00 -0.360706D+00  0.168291D+00
     12   0.565809D-01  0.104211D+00 -0.349268D+00 -0.154024D+00 -0.476699D-01
     13  -0.362872D-02 -0.184754D-01  0.220956D-01  0.102090D+00 -0.191080D-01
     14   0.108330D-01 -0.833223D-01  0.192999D+00  0.196080D+00 -0.235825D-02
     15   0.107727D-01  0.995360D-01  0.179688D+00 -0.243655D-01 -0.978302D-01
     16   0.278204D-01 -0.360579D-01 -0.854464D-01 -0.175265D-01  0.738980D-01
 1\1\GINC-C3CPU-A2-U26-2\SP\RCAM-B3LYP TD-FC\Aug-CC-pVDZ\C14H10\SILE661
 8\03-May-2024\0\\#p CAM-B3LYP/aug-cc-pVDZ TD(NStates=20,Root=0)\\TD-DF
 T excited state calculation: CAM-B3LYP/aug-cc-pVDZ\\0,1\C,0,10.70051,5
 .44882,23.71103\C,0,9.86535,6.36033,23.06568\C,0,11.92708,5.09157,23.1
 5315\C,0,10.20494,6.81277,21.73154\C,0,11.36552,6.33847,21.05453\C,0,1
 2.28918,5.58033,21.83391\C,0,12.86133,4.31545,23.9032\C,0,14.13694,4.0
 9733,23.44877\C,0,14.53031,4.64821,22.20398\C,0,13.6257,5.33579,21.434
 52\C,0,8.71898,6.89515,23.72297\C,0,7.97054,7.8934,23.15017\C,0,8.3222
 5,8.3755,21.86646\C,0,9.37377,7.81691,21.18403\H,0,8.47903,6.52006,24.
 71974\H,0,7.118,8.32084,23.67852\H,0,7.74314,9.17777,21.40694\H,0,9.62
 716,8.17517,20.18813\H,0,10.4301,5.07732,24.70245\H,0,13.95536,5.76717
 ,20.4966\H,0,15.55371,4.52044,21.84723\H,0,12.54422,3.93771,24.87737\H
 ,0,14.8505,3.52914,24.04618\H,0,11.6372,6.71833,20.07691\\Version=ES64
 L-G16RevA.03\State=1-A\HF=-539.2520888\RMSD=7.848e-09\PG=C01 [X(C14H10
 )]\\@


 Standing in the middle of the road is very dangerous;
 you get knocked down by the traffic from both sides.
                                -- Margaret Thatcher
 Job cpu time:       0 days  1 hours 42 minutes  6.2 seconds.
 Elapsed time:       0 days  1 hours 42 minutes 43.1 seconds.
 File lengths (MBytes):  RWF=   1408 Int=      0 D2E=      0 Chk=    120 Scr=     16
 Normal termination of Gaussian 16 at Fri May  3 17:45:00 2024.
