 Entering Gaussian System, Link 0=g16
 Initial command:
 /curc/sw/install/gaussian/g16_c.02/g16/l1.exe "/scratch/local/7851789/Gau-3086877.inp" -scrdir="/scratch/local/7851789/"
 Entering Link 1 = /curc/sw/install/gaussian/g16_c.02/g16/l1.exe PID=   3086878.
  
 Copyright (c) 1988-2021, Gaussian, Inc.  All Rights Reserved.
  
 This is part of the Gaussian(R) 16 program.  It is based on
 the Gaussian(R) 09 system (copyright 2009, Gaussian, Inc.),
 the Gaussian(R) 03 system (copyright 2003, Gaussian, Inc.),
 the Gaussian(R) 98 system (copyright 1998, Gaussian, Inc.),
 the Gaussian(R) 94 system (copyright 1995, Gaussian, Inc.),
 the Gaussian 92(TM) system (copyright 1992, Gaussian, Inc.),
 the Gaussian 90(TM) system (copyright 1990, Gaussian, Inc.),
 the Gaussian 88(TM) system (copyright 1988, Gaussian, Inc.),
 the Gaussian 86(TM) system (copyright 1986, Carnegie Mellon
 University), and the Gaussian 82(TM) system (copyright 1983,
 Carnegie Mellon University). Gaussian is a federally registered
 trademark of Gaussian, Inc.
  
 This software contains proprietary and confidential information,
 including trade secrets, belonging to Gaussian, Inc.
  
 This software is provided under written license and may be
 used, copied, transmitted, or stored only in accord with that
 written license.
  
 The following legend is applicable only to US Government
 contracts under FAR:
  
                    RESTRICTED RIGHTS LEGEND
  
 Use, reproduction and disclosure by the US Government is
 subject to restrictions as set forth in subparagraphs (a)
 and (c) of the Commercial Computer Software - Restricted
 Rights clause in FAR 52.227-19.
  
 Gaussian, Inc.
 340 Quinnipiac St., Bldg. 40, Wallingford CT 06492
  
  
 ---------------------------------------------------------------
 Warning -- This program may not be used in any manner that
 competes with the business of Gaussian, Inc. or will provide
 assistance to any competitor of Gaussian, Inc.  The licensee
 of this program is prohibited from giving any competitor of
 Gaussian, Inc. access to this program.  By using this program,
 the user acknowledges that Gaussian, Inc. is engaged in the
 business of creating and licensing software in the field of
 computational chemistry and represents and warrants to the
 licensee that it is not a competitor of Gaussian, Inc. and that
 it will not use this program in any manner prohibited above.
 ---------------------------------------------------------------
  

 Cite this work as:
 Gaussian 16, Revision C.02,
 M. J. Frisch, G. W. Trucks, H. B. Schlegel, G. E. Scuseria, 
 M. A. Robb, J. R. Cheeseman, G. Scalmani, V. Barone, 
 G. A. Petersson, H. Nakatsuji, X. Li, M. Caricato, A. V. Marenich, 
 J. Bloino, B. G. Janesko, R. Gomperts, B. Mennucci, H. P. Hratchian, 
 J. V. Ortiz, A. F. Izmaylov, J. L. Sonnenberg, D. Williams-Young, 
 F. Ding, F. Lipparini, F. Egidi, J. Goings, B. Peng, A. Petrone, 
 T. Henderson, D. Ranasinghe, V. G. Zakrzewski, J. Gao, N. Rega, 
 G. Zheng, W. Liang, M. Hada, M. Ehara, K. Toyota, R. Fukuda, 
 J. Hasegawa, M. Ishida, T. Nakajima, Y. Honda, O. Kitao, H. Nakai, 
 T. Vreven, K. Throssell, J. A. Montgomery, Jr., J. E. Peralta, 
 F. Ogliaro, M. J. Bearpark, J. J. Heyd, E. N. Brothers, K. N. Kudin, 
 V. N. Staroverov, T. A. Keith, R. Kobayashi, J. Normand, 
 K. Raghavachari, A. P. Rendell, J. C. Burant, S. S. Iyengar, 
 J. Tomasi, M. Cossi, J. M. Millam, M. Klene, C. Adamo, R. Cammi, 
 J. W. Ochterski, R. L. Martin, K. Morokuma, O. Farkas, 
 J. B. Foresman, and D. J. Fox, Gaussian, Inc., Wallingford CT, 2019.
 
 ******************************************
 Gaussian 16:  ES64L-G16RevC.02  7-Dec-2021
                30-Aug-2024 
 ******************************************
 %Chk=tddft
 ------------------------------------------
 #p CAM-B3LYP/cc-pVDZ TD(NStates=40,Root=0)
 ------------------------------------------
 1/38=1,172=1/1;
 2/12=2,17=6,18=5,40=1/2;
 3/5=16,11=9,25=1,30=1,74=-40/1,2,3,8;
 4//1;
 5/5=2,38=5/2;
 8/6=1,10=1,108=40/1;
 9/41=40,42=1,70=2/14;
 6/7=2,8=2,9=2,10=2/1;
 99/5=1,9=1/99;
 Leave Link    1 at Fri Aug 30 08:00:00 2024, MaxMem=           0 cpu:               0.0 elap:               0.4
 (Enter /curc/sw/install/gaussian/g16_c.02/g16/l101.exe)
 ---------------------------------------------------
 TD-DFT excited state calculation: CAM-B3LYP/cc-pVDZ
 ---------------------------------------------------
 Symbolic Z-matrix:
 Charge =  0 Multiplicity = 1
 C                     10.70051   5.44882   23.71103 
 C                     9.86535   6.36033   23.06568 
 C                     11.92708   5.09157   23.15315 
 C                     10.20494   6.81277   21.73154 
 C                     11.36552   6.33847   21.05453 
 C                     12.28918   5.58033   21.83391 
 C                     12.86133   4.31545   23.9032 
 C                     14.13694   4.09733   23.44877 
 C                     14.53031   4.64821   22.20398 
 C                     13.6257   5.33579   21.43452 
 C                     8.71898   6.89515   23.72297 
 C                     7.97054   7.8934    23.15017 
 C                     8.32225   8.3755    21.86646 
 C                     9.37377   7.81691   21.18403 
 H                     8.47903   6.52006   24.71974 
 H                     7.118     8.32084   23.67852 
 H                     7.74314   9.17777   21.40694 
 H                     9.62716   8.17517   20.18813 
 H                     10.4301   5.07732   24.70245 
 H                     13.95536   5.76717   20.4966 
 H                     15.55371   4.52044   21.84723 
 H                     12.54422   3.93771   24.87737 
 H                     14.8505   3.52914   24.04618 
 H                     11.6372   6.71833   20.07691 
 
 ITRead=  0  0  0  0  0  0  0  0  0  0  0  0  0  0  0  0  0  0  0  0
 ITRead=  0  0  0  0
 MicOpt= -1 -1 -1 -1 -1 -1 -1 -1 -1 -1 -1 -1 -1 -1 -1 -1 -1 -1 -1 -1
 MicOpt= -1 -1 -1 -1
 NAtoms=     24 NQM=       24 NQMF=       0 NMMI=      0 NMMIF=      0
                NMic=       0 NMicF=      0.
                    Isotopes and Nuclear Properties:
 (Nuclear quadrupole moments (NQMom) in fm**2, nuclear magnetic moments (NMagM)
  in nuclear magnetons)

  Atom         1           2           3           4           5           6           7           8           9          10
 IAtWgt=          12          12          12          12          12          12          12          12          12          12
 AtmWgt=  12.0000000  12.0000000  12.0000000  12.0000000  12.0000000  12.0000000  12.0000000  12.0000000  12.0000000  12.0000000
 NucSpn=           0           0           0           0           0           0           0           0           0           0
 AtZEff=  -0.0000000  -0.0000000  -0.0000000  -0.0000000  -0.0000000  -0.0000000  -0.0000000  -0.0000000  -0.0000000  -0.0000000
 NQMom=    0.0000000   0.0000000   0.0000000   0.0000000   0.0000000   0.0000000   0.0000000   0.0000000   0.0000000   0.0000000
 NMagM=    0.0000000   0.0000000   0.0000000   0.0000000   0.0000000   0.0000000   0.0000000   0.0000000   0.0000000   0.0000000
 AtZNuc=   6.0000000   6.0000000   6.0000000   6.0000000   6.0000000   6.0000000   6.0000000   6.0000000   6.0000000   6.0000000

  Atom        11          12          13          14          15          16          17          18          19          20
 IAtWgt=          12          12          12          12           1           1           1           1           1           1
 AtmWgt=  12.0000000  12.0000000  12.0000000  12.0000000   1.0078250   1.0078250   1.0078250   1.0078250   1.0078250   1.0078250
 NucSpn=           0           0           0           0           1           1           1           1           1           1
 AtZEff=  -0.0000000  -0.0000000  -0.0000000  -0.0000000  -0.0000000  -0.0000000  -0.0000000  -0.0000000  -0.0000000  -0.0000000
 NQMom=    0.0000000   0.0000000   0.0000000   0.0000000   0.0000000   0.0000000   0.0000000   0.0000000   0.0000000   0.0000000
 NMagM=    0.0000000   0.0000000   0.0000000   0.0000000   2.7928460   2.7928460   2.7928460   2.7928460   2.7928460   2.7928460
 AtZNuc=   6.0000000   6.0000000   6.0000000   6.0000000   1.0000000   1.0000000   1.0000000   1.0000000   1.0000000   1.0000000

  Atom        21          22          23          24
 IAtWgt=           1           1           1           1
 AtmWgt=   1.0078250   1.0078250   1.0078250   1.0078250
 NucSpn=           1           1           1           1
 AtZEff=  -0.0000000  -0.0000000  -0.0000000  -0.0000000
 NQMom=    0.0000000   0.0000000   0.0000000   0.0000000
 NMagM=    2.7928460   2.7928460   2.7928460   2.7928460
 AtZNuc=   1.0000000   1.0000000   1.0000000   1.0000000
 Leave Link  101 at Fri Aug 30 08:00:00 2024, MaxMem=   104857600 cpu:               0.0 elap:               0.0
 (Enter /curc/sw/install/gaussian/g16_c.02/g16/l202.exe)
                          Input orientation:                          
 ---------------------------------------------------------------------
 Center     Atomic      Atomic             Coordinates (Angstroms)
 Number     Number       Type             X           Y           Z
 ---------------------------------------------------------------------
      1          6           0       10.700510    5.448820   23.711030
      2          6           0        9.865350    6.360330   23.065680
      3          6           0       11.927080    5.091570   23.153150
      4          6           0       10.204940    6.812770   21.731540
      5          6           0       11.365520    6.338470   21.054530
      6          6           0       12.289180    5.580330   21.833910
      7          6           0       12.861330    4.315450   23.903200
      8          6           0       14.136940    4.097330   23.448770
      9          6           0       14.530310    4.648210   22.203980
     10          6           0       13.625700    5.335790   21.434520
     11          6           0        8.718980    6.895150   23.722970
     12          6           0        7.970540    7.893400   23.150170
     13          6           0        8.322250    8.375500   21.866460
     14          6           0        9.373770    7.816910   21.184030
     15          1           0        8.479030    6.520060   24.719740
     16          1           0        7.118000    8.320840   23.678520
     17          1           0        7.743140    9.177770   21.406940
     18          1           0        9.627160    8.175170   20.188130
     19          1           0       10.430100    5.077320   24.702450
     20          1           0       13.955360    5.767170   20.496600
     21          1           0       15.553710    4.520440   21.847230
     22          1           0       12.544220    3.937710   24.877370
     23          1           0       14.850500    3.529140   24.046180
     24          1           0       11.637200    6.718330   20.076910
 ---------------------------------------------------------------------
                    Distance matrix (angstroms):
                    1          2          3          4          5
     1  C    0.000000
     2  C    1.394568   0.000000
     3  C    1.394034   2.422423   0.000000
     4  C    2.454451   1.449121   2.819445   0.000000
     5  C    2.879359   2.509126   2.504858   1.424868   0.000000
     6  C    2.462671   2.828535   1.452721   2.423519   1.426659
     7  C    2.447570   3.722750   1.427501   4.243716   3.800655
     8  C    3.701940   4.849166   2.441185   5.077708   4.293700
     9  C    4.192797   5.043385   2.806118   4.859768   3.767507
    10  C    3.708370   4.224997   2.428712   3.737819   2.501634
    11  C    2.453258   1.425562   3.724178   2.486093   3.799294
    12  C    3.707192   2.438800   4.848141   2.858814   4.281986
    13  C    4.198097   2.807169   5.043269   2.450480   3.751028
    14  C    3.708614   2.429791   4.221884   1.413827   2.483873
    15  H    2.664587   2.164096   4.047695   3.463204   4.668893
    16  H    4.591724   3.430321   5.816481   3.948950   5.371828
    17  H    5.287716   3.897841   6.103412   3.429147   4.616000
    18  H    4.582127   3.410377   4.856909   2.138242   2.673202
    19  H    1.092725   2.155011   2.154410   3.448012   3.971502
    20  H    4.585625   4.866230   3.409929   4.084606   2.710155
    21  H    5.281022   6.101414   3.896673   5.820438   4.634063
    22  H    2.653878   4.040749   2.164530   4.861527   4.665521
    23  H    4.584748   5.816248   3.432940   6.141743   5.383994
    24  H    3.961802   3.492902   3.491938   2.190454   1.083441
                    6          7          8          9         10
     6  C    0.000000
     7  C    2.491834   0.000000
     8  C    2.867277   1.371592   0.000000
     9  C    2.455293   2.404906   1.416937   0.000000
    10  C    1.416191   2.778441   2.419164   1.372281   0.000000
    11  C    4.247779   4.883277   6.103874   6.413082   5.634226
    12  C    5.072818   6.106440   7.247330   7.379506   6.439383
    13  C    4.852893   6.421492   7.390336   7.248905   6.128050
    14  C    3.731521   5.640672   6.453845   6.137659   4.929261
    15  H    4.871175   4.973087   6.284658   6.815487   6.219596
    16  H    6.136292   7.005674   8.194897   8.402667   7.503081
    17  H    5.812947   7.487946   8.417875   8.198650   7.026100
    18  H    4.065481   6.257718   6.899179   6.367415   5.060029
    19  H    3.455100   2.670230   4.033951   4.820603   4.577994
    20  H    2.144636   3.861258   3.396564   2.120798   1.083724
    21  H    3.432302   3.393810   2.179722   1.091303   2.133623
    22  H    3.467837   1.091904   2.145491   3.405345   3.870070
    23  H    3.957509   2.143717   1.090370   2.179115   3.403658
    24  H    2.192526   4.681113   4.948513   4.144865   2.776446
                   11         12         13         14         15
    11  C    0.000000
    12  C    1.372868   0.000000
    13  C    2.407376   1.415638   0.000000
    14  C    2.779318   2.416736   1.372380   0.000000
    15  H    1.091705   2.146666   3.407117   3.870869   0.000000
    16  H    2.144226   1.090267   2.176412   3.400724   2.485830
    17  H    3.395087   2.177193   1.090946   2.135552   4.310406
    18  H    3.867601   3.405505   2.135349   1.088289   4.959141
    19  H    2.681757   4.048372   4.833618   4.582627   2.426617
    20  H    6.253117   6.883339   6.357030   5.066060   6.956432
    21  H    7.474703   8.401130   8.194869   7.035496   7.893091
    22  H    4.971071   6.288820   6.825290   6.224203   4.818625
    23  H    7.002144   8.196551   8.417626   7.521399   7.070708
    24  H    4.673438   4.926471   4.115531   2.748765   5.618649
                   16         17         18         19         20
    16  H    0.000000
    17  H    2.507031   0.000000
    18  H    4.301154   2.457689   0.000000
    19  H    4.747511   5.907100   5.533577   0.000000
    20  H    7.962119   7.145109   4.962553   5.531051   0.000000
    21  H    9.431748   9.104372   7.157769   5.891840   2.435828
    22  H    7.077636   7.909013   6.960911   2.408072   4.952715
    23  H    9.104236   9.454479   7.984574   4.729428   4.290638
    24  H    5.996899   4.793905   2.484957   5.054268   2.540612
                   21         22         23         24
    21  H    0.000000
    22  H    4.310261   0.000000
    23  H    2.512481   2.485304   0.000000
    24  H    4.827401   5.621294   6.020908   0.000000
 Stoichiometry    C14H10
 Framework group  C1[X(C14H10)]
 Deg. of freedom    66
 Full point group                 C1      NOp   1
 Largest Abelian subgroup         C1      NOp   1
 Largest concise Abelian subgroup C1      NOp   1
                         Standard orientation:                         
 ---------------------------------------------------------------------
 Center     Atomic      Atomic             Coordinates (Angstroms)
 Number     Number       Type             X           Y           Z
 ---------------------------------------------------------------------
      1          6           0        0.003909   -1.386121   -0.212101
      2          6           0       -1.210358   -0.703665   -0.144058
      3          6           0        1.211926   -0.691853   -0.167177
      4          6           0       -1.213969    0.744744   -0.189345
      5          6           0       -0.007007    1.491335   -0.316201
      6          6           0        1.209397    0.760865   -0.167429
      7          6           0        2.445383   -1.399071   -0.039951
      8          6           0        3.627842   -0.739729    0.179876
      9          6           0        3.623167    0.674086    0.273760
     10          6           0        2.460023    1.376642    0.082277
     11          6           0       -2.437403   -1.408471    0.028669
     12          6           0       -3.619282   -0.741020    0.234674
     13          6           0       -3.625656    0.674596    0.239256
     14          6           0       -2.468446    1.370459   -0.005835
     15          1           0       -2.403751   -2.499602    0.039612
     16          1           0       -4.545442   -1.291099    0.402971
     17          1           0       -4.556336    1.215878    0.415357
     18          1           0       -2.481862    2.458522   -0.023538
     19          1           0        0.009443   -2.478829   -0.214432
     20          1           0        2.476473    2.455735    0.180991
     21          1           0        4.547724    1.211807    0.490543
     22          1           0        2.413486   -2.489925   -0.075642
     23          1           0        4.558284   -1.293911    0.306623
     24          1           0       -0.015171    2.574638   -0.300964
 ---------------------------------------------------------------------
 Rotational constants (GHZ):           2.0859008           0.4578030           0.3791735
 Leave Link  202 at Fri Aug 30 08:00:00 2024, MaxMem=   104857600 cpu:               0.0 elap:               0.0
 (Enter /curc/sw/install/gaussian/g16_c.02/g16/l301.exe)
 Standard basis: CC-pVDZ (5D, 7F)
 Ernie: Thresh=  0.10000D-02 Tol=  0.10000D-05 Strict=F.
 Ernie:  28 primitive shells out of 358 were deleted.
 There are   260 symmetry adapted cartesian basis functions of A   symmetry.
 There are   246 symmetry adapted basis functions of A   symmetry.
   246 basis functions,   532 primitive gaussians,   260 cartesian basis functions
    47 alpha electrons       47 beta electrons
       nuclear repulsion energy       766.4648408551 Hartrees.
 IExCor=20419 DFT=T Ex+Corr=CAM-B3LYP ExCW=0 ScaHFX=  1.000000
 ScaDFX=  1.000000  1.000000  1.000000  0.810000 ScalE2=  1.000000  1.000000
 IRadAn=      5 IRanWt=     -1 IRanGd=            0 ICorTp=0 IEmpDi=  4
 HFx  wShort=  0.000000 wLong=  0.330000 cFull=  0.190000 cShort=  0.000000 cLong=  0.460000
 DFx  wShort=  0.000000 wLong=  0.330000 cFull=  0.190000 cShort=  0.000000 cLong=  0.460000
 NAtoms=   24 NActive=   24 NUniq=   24 SFac= 1.00D+00 NAtFMM=   60 NAOKFM=F Big=F
 Integral buffers will be    131072 words long.
 Raffenetti 1 integral format.
 Two-electron integral symmetry is turned on.
 Leave Link  301 at Fri Aug 30 08:00:00 2024, MaxMem=   104857600 cpu:               0.0 elap:               0.1
 (Enter /curc/sw/install/gaussian/g16_c.02/g16/l302.exe)
 NPDir=0 NMtPBC=     1 NCelOv=     1 NCel=       1 NClECP=     1 NCelD=      1
         NCelK=      1 NCelE2=     1 NClLst=     1 CellRange=     0.0.
 One-electron integrals computed using PRISM.
 One-electron integral symmetry used in STVInt
 NBasis=   246 RedAO= T EigKep=  1.53D-04  NBF=   246
 NBsUse=   246 1.00D-06 EigRej= -1.00D+00 NBFU=   246
 Precomputing XC quadrature grid using
 IXCGrd= 4 IRadAn=           5 IRanWt=          -1 IRanGd=           0 AccXCQ= 0.00D+00.
 Generated NRdTot=       0 NPtTot=           0 NUsed=           0 NTot=          32
 NSgBfM=   260   260   260   260   260 MxSgAt=    24 MxSgA2=    24.
 Leave Link  302 at Fri Aug 30 08:00:01 2024, MaxMem=   104857600 cpu:               0.3 elap:               0.5
 (Enter /curc/sw/install/gaussian/g16_c.02/g16/l303.exe)
 DipDrv:  MaxL=1.
 Leave Link  303 at Fri Aug 30 08:00:01 2024, MaxMem=   104857600 cpu:               0.0 elap:               0.0
 (Enter /curc/sw/install/gaussian/g16_c.02/g16/l308.exe)
 Leave Link  308 at Fri Aug 30 08:00:01 2024, MaxMem=   104857600 cpu:               0.0 elap:               0.0
 (Enter /curc/sw/install/gaussian/g16_c.02/g16/l401.exe)
 ExpMin= 1.22D-01 ExpMax= 6.67D+03 ExpMxC= 2.28D+02 IAcc=3 IRadAn=         5 AccDes= 0.00D+00
 Harris functional with IExCor=20419 and IRadAn=       5 diagonalized for initial guess.
 HarFok:  IExCor=20419 AccDes= 0.00D+00 IRadAn=         5 IDoV= 1 UseB2=F ITyADJ=14
 ICtDFT=  3500011 ScaDFX=  1.000000  1.000000  1.000000  1.000000
 FoFCou: FMM=F IPFlag=           0 FMFlag=      100000 FMFlg1=           0
         NFxFlg=           0 DoJE=T BraDBF=F KetDBF=T FulRan=T
         wScrn=  0.000000 ICntrl=       500 IOpCl=  0 I1Cent=   200000004 NGrid=           0
         NMat0=    1 NMatS0=      1 NMatT0=    0 NMatD0=    1 NMtDS0=    0 NMtDT0=    0
 Petite list used in FoFCou.
 Harris En= -517.149627339899    
 JPrj=0 DoOrth=F DoCkMO=F.
 Leave Link  401 at Fri Aug 30 08:00:05 2024, MaxMem=   104857600 cpu:               3.5 elap:               4.0
 (Enter /curc/sw/install/gaussian/g16_c.02/g16/l502.exe)
 Integral symmetry usage will be decided dynamically.
 Closed shell SCF:
 Using DIIS extrapolation, IDIIS=  1040.
 NGot=   104857600 LenX=   104717506 LenY=   104649465
 Requested convergence on RMS density matrix=1.00D-08 within 128 cycles.
 Requested convergence on MAX density matrix=1.00D-06.
 Requested convergence on             energy=1.00D-06.
 No special actions if energy rises.
 Fock matrices will be formed incrementally for  20 cycles.
 Integral accuracy reduced to 1.0D-05 until final iterations.

 Cycle   1  Pass 0  IDiag  1:
 FoFJK:  IHMeth= 1 ICntrl=       0 DoSepK=T KAlg= 0 I1Cent=           0 FoldK=F
 IRaf=         1 NMat=       1 IRICut=       1 DoRegI=T DoRafI=F ISym2E= 0 IDoP0=0 IntGTp=1.
 FoFCou: FMM=F IPFlag=           0 FMFlag=      100000 FMFlg1=           0
         NFxFlg=           0 DoJE=T BraDBF=F KetDBF=F FulRan=T
         wScrn=  0.000000 ICntrl=       500 IOpCl=  0 I1Cent=           0 NGrid=           0
         NMat0=    1 NMatS0=      1 NMatT0=    0 NMatD0=    1 NMtDS0=    0 NMtDT0=    0
 Symmetry not used in FoFCou.
 E= -539.171292331814    
 DIIS: error= 2.33D-02 at cycle   1 NSaved=   1.
 NSaved= 1 IEnMin= 1 EnMin= -539.171292331814     IErMin= 1 ErrMin= 2.33D-02
 ErrMax= 2.33D-02  0.00D+00 EMaxC= 1.00D-01 BMatC= 1.28D-01 BMatP= 1.28D-01
 IDIUse=3 WtCom= 7.67D-01 WtEn= 2.33D-01
 Coeff-Com:  0.100D+01
 Coeff-En:   0.100D+01
 Coeff:      0.100D+01
 Gap=     0.209 Goal=   None    Shift=    0.000
 GapD=    0.209 DampG=1.000 DampE=0.500 DampFc=0.5000 IDamp=-1.
 Damping current iteration by 5.00D-01
 RMSDP=2.48D-03 MaxDP=5.85D-02              OVMax= 5.39D-02

 Cycle   2  Pass 0  IDiag  1:
 RMSU=  1.18D-03    CP:  9.82D-01
 E= -539.200001693005     Delta-E=       -0.028709361191 Rises=F Damp=T
 DIIS: error= 1.17D-02 at cycle   2 NSaved=   2.
 NSaved= 2 IEnMin= 2 EnMin= -539.200001693005     IErMin= 2 ErrMin= 1.17D-02
 ErrMax= 1.17D-02  0.00D+00 EMaxC= 1.00D-01 BMatC= 2.89D-02 BMatP= 1.28D-01
 IDIUse=3 WtCom= 8.83D-01 WtEn= 1.17D-01
 Coeff-Com: -0.641D+00 0.164D+01
 Coeff-En:   0.000D+00 0.100D+01
 Coeff:     -0.566D+00 0.157D+01
 Gap=     0.213 Goal=   None    Shift=    0.000
 RMSDP=1.18D-03 MaxDP=2.28D-02 DE=-2.87D-02 OVMax= 4.17D-02

 Cycle   3  Pass 0  IDiag  1:
 RMSU=  7.50D-04    CP:  9.69D-01  1.73D+00
 E= -539.222365944740     Delta-E=       -0.022364251735 Rises=F Damp=F
 DIIS: error= 3.92D-03 at cycle   3 NSaved=   3.
 NSaved= 3 IEnMin= 3 EnMin= -539.222365944740     IErMin= 3 ErrMin= 3.92D-03
 ErrMax= 3.92D-03  0.00D+00 EMaxC= 1.00D-01 BMatC= 5.16D-03 BMatP= 2.89D-02
 IDIUse=3 WtCom= 9.61D-01 WtEn= 3.92D-02
 Coeff-Com: -0.347D+00 0.701D+00 0.646D+00
 Coeff-En:   0.000D+00 0.000D+00 0.100D+01
 Coeff:     -0.333D+00 0.673D+00 0.660D+00
 Gap=     0.212 Goal=   None    Shift=    0.000
 RMSDP=3.70D-04 MaxDP=1.09D-02 DE=-2.24D-02 OVMax= 2.54D-02

 Cycle   4  Pass 0  IDiag  1:
 RMSU=  2.35D-04    CP:  9.67D-01  1.87D+00  6.96D-01
 E= -539.227161533032     Delta-E=       -0.004795588291 Rises=F Damp=F
 DIIS: error= 2.37D-03 at cycle   4 NSaved=   4.
 NSaved= 4 IEnMin= 4 EnMin= -539.227161533032     IErMin= 4 ErrMin= 2.37D-03
 ErrMax= 2.37D-03  0.00D+00 EMaxC= 1.00D-01 BMatC= 6.93D-04 BMatP= 5.16D-03
 IDIUse=3 WtCom= 9.76D-01 WtEn= 2.37D-02
 Coeff-Com: -0.163D+00 0.318D+00 0.374D+00 0.471D+00
 Coeff-En:   0.000D+00 0.000D+00 0.321D-01 0.968D+00
 Coeff:     -0.159D+00 0.311D+00 0.366D+00 0.482D+00
 Gap=     0.211 Goal=   None    Shift=    0.000
 RMSDP=1.23D-04 MaxDP=4.80D-03 DE=-4.80D-03 OVMax= 9.64D-03

 Cycle   5  Pass 0  IDiag  1:
 RMSU=  5.16D-05    CP:  9.66D-01  1.88D+00  7.48D-01  5.60D-01
 E= -539.227951289477     Delta-E=       -0.000789756446 Rises=F Damp=F
 DIIS: error= 2.06D-04 at cycle   5 NSaved=   5.
 NSaved= 5 IEnMin= 5 EnMin= -539.227951289477     IErMin= 5 ErrMin= 2.06D-04
 ErrMax= 2.06D-04  0.00D+00 EMaxC= 1.00D-01 BMatC= 6.53D-06 BMatP= 6.93D-04
 IDIUse=3 WtCom= 9.98D-01 WtEn= 2.06D-03
 Coeff-Com: -0.261D-01 0.499D-01 0.629D-01 0.123D+00 0.791D+00
 Coeff-En:   0.000D+00 0.000D+00 0.000D+00 0.000D+00 0.100D+01
 Coeff:     -0.260D-01 0.498D-01 0.628D-01 0.122D+00 0.791D+00
 Gap=     0.211 Goal=   None    Shift=    0.000
 RMSDP=1.88D-05 MaxDP=5.30D-04 DE=-7.90D-04 OVMax= 1.70D-03

 Cycle   6  Pass 0  IDiag  1:
 RMSU=  1.46D-05    CP:  9.66D-01  1.88D+00  7.51D-01  5.97D-01  1.06D+00
 E= -539.227959693845     Delta-E=       -0.000008404368 Rises=F Damp=F
 DIIS: error= 8.86D-05 at cycle   6 NSaved=   6.
 NSaved= 6 IEnMin= 6 EnMin= -539.227959693845     IErMin= 6 ErrMin= 8.86D-05
 ErrMax= 8.86D-05  0.00D+00 EMaxC= 1.00D-01 BMatC= 2.13D-06 BMatP= 6.53D-06
 IDIUse=1 WtCom= 1.00D+00 WtEn= 0.00D+00
 Coeff-Com:  0.149D-01-0.295D-01-0.324D-01-0.224D-01 0.385D+00 0.685D+00
 Coeff:      0.149D-01-0.295D-01-0.324D-01-0.224D-01 0.385D+00 0.685D+00
 Gap=     0.211 Goal=   None    Shift=    0.000
 RMSDP=9.38D-06 MaxDP=2.43D-04 DE=-8.40D-06 OVMax= 8.09D-04

 Initial convergence to 1.0D-05 achieved.  Increase integral accuracy.
 Cycle   7  Pass 1  IDiag  1:
 E= -539.227966404860     Delta-E=       -0.000006711015 Rises=F Damp=F
 DIIS: error= 1.25D-04 at cycle   1 NSaved=   1.
 NSaved= 1 IEnMin= 1 EnMin= -539.227966404860     IErMin= 1 ErrMin= 1.25D-04
 ErrMax= 1.25D-04  0.00D+00 EMaxC= 1.00D-01 BMatC= 1.27D-06 BMatP= 1.27D-06
 IDIUse=3 WtCom= 9.99D-01 WtEn= 1.25D-03
 Coeff-Com:  0.100D+01
 Coeff-En:   0.100D+01
 Coeff:      0.100D+01
 Gap=     0.211 Goal=   None    Shift=    0.000
 RMSDP=9.38D-06 MaxDP=2.43D-04 DE=-6.71D-06 OVMax= 4.87D-04

 Cycle   8  Pass 1  IDiag  1:
 RMSU=  8.38D-05    CP:  1.00D+00
 E= -539.227967301615     Delta-E=       -0.000000896755 Rises=F Damp=F
 DIIS: error= 3.99D-05 at cycle   2 NSaved=   2.
 NSaved= 2 IEnMin= 2 EnMin= -539.227967301615     IErMin= 2 ErrMin= 3.99D-05
 ErrMax= 3.99D-05  0.00D+00 EMaxC= 1.00D-01 BMatC= 2.96D-07 BMatP= 1.27D-06
 IDIUse=1 WtCom= 1.00D+00 WtEn= 0.00D+00
 Coeff-Com:  0.240D+00 0.760D+00
 Coeff:      0.240D+00 0.760D+00
 Gap=     0.211 Goal=   None    Shift=    0.000
 RMSDP=5.09D-06 MaxDP=1.68D-04 DE=-8.97D-07 OVMax= 4.70D-04

 Cycle   9  Pass 1  IDiag  1:
 RMSU=  4.70D-06    CP:  1.00D+00  1.02D+00
 E= -539.227967395238     Delta-E=       -0.000000093623 Rises=F Damp=F
 DIIS: error= 3.85D-05 at cycle   3 NSaved=   3.
 NSaved= 3 IEnMin= 3 EnMin= -539.227967395238     IErMin= 3 ErrMin= 3.85D-05
 ErrMax= 3.85D-05  0.00D+00 EMaxC= 1.00D-01 BMatC= 2.49D-07 BMatP= 2.96D-07
 IDIUse=1 WtCom= 1.00D+00 WtEn= 0.00D+00
 Coeff-Com: -0.178D-01 0.481D+00 0.537D+00
 Coeff:     -0.178D-01 0.481D+00 0.537D+00
 Gap=     0.211 Goal=   None    Shift=    0.000
 RMSDP=2.39D-06 MaxDP=8.46D-05 DE=-9.36D-08 OVMax= 2.56D-04

 Cycle  10  Pass 1  IDiag  1:
 RMSU=  9.27D-07    CP:  1.00D+00  1.03D+00  5.73D-01
 E= -539.227967693950     Delta-E=       -0.000000298711 Rises=F Damp=F
 DIIS: error= 5.04D-06 at cycle   4 NSaved=   4.
 NSaved= 4 IEnMin= 4 EnMin= -539.227967693950     IErMin= 4 ErrMin= 5.04D-06
 ErrMax= 5.04D-06  0.00D+00 EMaxC= 1.00D-01 BMatC= 1.92D-09 BMatP= 2.49D-07
 IDIUse=1 WtCom= 1.00D+00 WtEn= 0.00D+00
 Coeff-Com: -0.849D-02 0.791D-01 0.105D+00 0.824D+00
 Coeff:     -0.849D-02 0.791D-01 0.105D+00 0.824D+00
 Gap=     0.211 Goal=   None    Shift=    0.000
 RMSDP=3.81D-07 MaxDP=1.51D-05 DE=-2.99D-07 OVMax= 4.26D-05

 Cycle  11  Pass 1  IDiag  1:
 RMSU=  3.32D-07    CP:  1.00D+00  1.03D+00  5.88D-01  1.18D+00
 E= -539.227967699321     Delta-E=       -0.000000005372 Rises=F Damp=F
 DIIS: error= 3.01D-06 at cycle   5 NSaved=   5.
 NSaved= 5 IEnMin= 5 EnMin= -539.227967699321     IErMin= 5 ErrMin= 3.01D-06
 ErrMax= 3.01D-06  0.00D+00 EMaxC= 1.00D-01 BMatC= 9.19D-10 BMatP= 1.92D-09
 IDIUse=1 WtCom= 1.00D+00 WtEn= 0.00D+00
 Coeff-Com:  0.229D-02-0.138D+00-0.145D+00 0.429D+00 0.852D+00
 Coeff:      0.229D-02-0.138D+00-0.145D+00 0.429D+00 0.852D+00
 Gap=     0.211 Goal=   None    Shift=    0.000
 RMSDP=2.84D-07 MaxDP=8.00D-06 DE=-5.37D-09 OVMax= 3.71D-05

 Cycle  12  Pass 1  IDiag  1:
 RMSU=  1.45D-07    CP:  1.00D+00  1.04D+00  5.95D-01  1.44D+00  1.03D+00
 E= -539.227967701829     Delta-E=       -0.000000002507 Rises=F Damp=F
 DIIS: error= 7.58D-07 at cycle   6 NSaved=   6.
 NSaved= 6 IEnMin= 6 EnMin= -539.227967701829     IErMin= 6 ErrMin= 7.58D-07
 ErrMax= 7.58D-07  0.00D+00 EMaxC= 1.00D-01 BMatC= 6.59D-11 BMatP= 9.19D-10
 IDIUse=1 WtCom= 1.00D+00 WtEn= 0.00D+00
 Coeff-Com:  0.179D-02-0.655D-01-0.704D-01 0.949D-01 0.341D+00 0.699D+00
 Coeff:      0.179D-02-0.655D-01-0.704D-01 0.949D-01 0.341D+00 0.699D+00
 Gap=     0.211 Goal=   None    Shift=    0.000
 RMSDP=6.42D-08 MaxDP=1.40D-06 DE=-2.51D-09 OVMax= 8.31D-06

 Cycle  13  Pass 1  IDiag  1:
 RMSU=  3.68D-08    CP:  1.00D+00  1.03D+00  5.97D-01  1.48D+00  1.14D+00
                    CP:  1.04D+00
 E= -539.227967701923     Delta-E=       -0.000000000094 Rises=F Damp=F
 DIIS: error= 2.79D-07 at cycle   7 NSaved=   7.
 NSaved= 7 IEnMin= 7 EnMin= -539.227967701923     IErMin= 7 ErrMin= 2.79D-07
 ErrMax= 2.79D-07  0.00D+00 EMaxC= 1.00D-01 BMatC= 1.01D-11 BMatP= 6.59D-11
 IDIUse=1 WtCom= 1.00D+00 WtEn= 0.00D+00
 Coeff-Com:  0.774D-03-0.246D-01-0.266D-01 0.195D-01 0.118D+00 0.371D+00
 Coeff-Com:  0.542D+00
 Coeff:      0.774D-03-0.246D-01-0.266D-01 0.195D-01 0.118D+00 0.371D+00
 Coeff:      0.542D+00
 Gap=     0.211 Goal=   None    Shift=    0.000
 RMSDP=1.49D-08 MaxDP=3.88D-07 DE=-9.41D-11 OVMax= 1.42D-06

 Cycle  14  Pass 1  IDiag  1:
 RMSU=  8.84D-09    CP:  1.00D+00  1.03D+00  5.97D-01  1.48D+00  1.15D+00
                    CP:  1.08D+00  7.59D-01
 E= -539.227967701941     Delta-E=       -0.000000000018 Rises=F Damp=F
 DIIS: error= 3.25D-08 at cycle   8 NSaved=   8.
 NSaved= 8 IEnMin= 8 EnMin= -539.227967701941     IErMin= 8 ErrMin= 3.25D-08
 ErrMax= 3.25D-08  0.00D+00 EMaxC= 1.00D-01 BMatC= 2.10D-13 BMatP= 1.01D-11
 IDIUse=1 WtCom= 1.00D+00 WtEn= 0.00D+00
 Coeff-Com:  0.704D-04-0.157D-02-0.169D-02-0.199D-02 0.529D-02 0.474D-01
 Coeff-Com:  0.147D+00 0.806D+00
 Coeff:      0.704D-04-0.157D-02-0.169D-02-0.199D-02 0.529D-02 0.474D-01
 Coeff:      0.147D+00 0.806D+00
 Gap=     0.211 Goal=   None    Shift=    0.000
 RMSDP=4.00D-09 MaxDP=6.35D-08 DE=-1.82D-11 OVMax= 2.83D-07

 SCF Done:  E(RCAM-B3LYP) =  -539.227967702     A.U. after   14 cycles
            NFock= 14  Conv=0.40D-08     -V/T= 2.0067
 KE= 5.356378249619D+02 PE=-2.782669630741D+03 EE= 9.413389972225D+02
 Leave Link  502 at Fri Aug 30 08:02:32 2024, MaxMem=   104857600 cpu:             146.3 elap:             146.8
 (Enter /curc/sw/install/gaussian/g16_c.02/g16/l801.exe)
 DoSCS=F DFT=T ScalE2(SS,OS)=  1.000000  1.000000
 ExpMin= 1.22D-01 ExpMax= 6.67D+03 ExpMxC= 2.28D+02 IAcc=3 IRadAn=         5 AccDes= 0.00D+00
 HarFok:  IExCor=  205 AccDes= 0.00D+00 IRadAn=         5 IDoV=-2 UseB2=F ITyADJ=14
 ICtDFT= 12500011 ScaDFX=  1.000000  1.000000  1.000000  1.000000
 Largest valence mixing into a core orbital is  3.67D-05
 Largest core mixing into a valence orbital is  2.30D-05
 Range of M.O.s used for correlation:    15   246
 NBasis=   246 NAE=    47 NBE=    47 NFC=    14 NFV=     0
 NROrb=    232 NOA=    33 NOB=    33 NVA=   199 NVB=   199

 **** Warning!!: The largest alpha MO coefficient is  0.14373939D+02

 Leave Link  801 at Fri Aug 30 08:02:33 2024, MaxMem=   104857600 cpu:               0.3 elap:               0.3
 (Enter /curc/sw/install/gaussian/g16_c.02/g16/l914.exe)
 RHF ground state
 Two-electron integrals replicated using symmetry.
 MDV=   104857600 DFT=T DoStab=F Mixed=T DoRPA=T DoScal=F NonHer=T
 Making orbital integer symmetry assigments:
 Orbital symmetries:
       Occupied  (A) (A) (A) (A) (A) (A) (A) (A) (A) (A) (A) (A)
                 (A) (A) (A) (A) (A) (A) (A) (A) (A) (A) (A) (A)
                 (A) (A) (A) (A) (A) (A) (A) (A) (A) (A) (A) (A)
                 (A) (A) (A) (A) (A) (A) (A) (A) (A) (A) (A)
       Virtual   (A) (A) (A) (A) (A) (A) (A) (A) (A) (A) (A) (A)
                 (A) (A) (A) (A) (A) (A) (A) (A) (A) (A) (A) (A)
                 (A) (A) (A) (A) (A) (A) (A) (A) (A) (A) (A) (A)
                 (A) (A) (A) (A) (A) (A) (A) (A) (A) (A) (A) (A)
                 (A) (A) (A) (A) (A) (A) (A) (A) (A) (A) (A) (A)
                 (A) (A) (A) (A) (A) (A) (A) (A) (A) (A) (A) (A)
                 (A) (A) (A) (A) (A) (A) (A) (A) (A) (A) (A) (A)
                 (A) (A) (A) (A) (A) (A) (A) (A) (A) (A) (A) (A)
                 (A) (A) (A) (A) (A) (A) (A) (A) (A) (A) (A) (A)
                 (A) (A) (A) (A) (A) (A) (A) (A) (A) (A) (A) (A)
                 (A) (A) (A) (A) (A) (A) (A) (A) (A) (A) (A) (A)
                 (A) (A) (A) (A) (A) (A) (A) (A) (A) (A) (A) (A)
                 (A) (A) (A) (A) (A) (A) (A) (A) (A) (A) (A) (A)
                 (A) (A) (A) (A) (A) (A) (A) (A) (A) (A) (A) (A)
                 (A) (A) (A) (A) (A) (A) (A) (A) (A) (A) (A) (A)
                 (A) (A) (A) (A) (A) (A) (A) (A) (A) (A) (A) (A)
                 (A) (A) (A) (A) (A) (A) (A)
   160 initial guesses have been made.
 Convergence on wavefunction:    0.001000000000000
 Davidson Disk Diagonalization:  ConvIn= 1.00D-03 SkipCon=T Conv= 1.00D-03.
 Max sub-space:  2400 roots to seek:   160 dimension of matrix:        13134
 Iteration     1 Dimension   160 NMult     0 NNew    160
 CISAX will form   160 AO SS matrices at one time.
 NMat=   160 NSing=   160 JSym2X= 0.
 FoFJK:  IHMeth= 1 ICntrl=       0 DoSepK=T KAlg= 0 I1Cent=           0 FoldK=F
 IRaf=         1 NMat=     320 IRICut=       1 DoRegI=T DoRafI=F ISym2E= 0 IDoP0=3 IntGTp=3.
 FoFCou: FMM=F IPFlag=           0 FMFlag=      100000 FMFlg1=           0
         NFxFlg=           0 DoJE=F BraDBF=F KetDBF=F FulRan=T
         wScrn=  0.000000 ICntrl=       500 IOpCl=  0 I1Cent=           0 NGrid=           0
         NMat0=  160 NMatS0=    160 NMatT0=    0 NMatD0=  160 NMtDS0=    0 NMtDT0=    0
 Symmetry not used in FoFCou.
 New state      3 was old state      4
 New state      4 was old state      5
 New state      5 was old state     10
 New state      6 was old state      7
 New state      7 was old state      3
 New state      8 was old state     16
 New state      9 was old state      6
 New state     10 was old state     18
 New state     11 was old state     19
 New state     13 was old state      9
 New state     14 was old state     15
 New state     15 was old state     20
 New state     16 was old state     13
 New state     17 was old state      8
 New state     18 was old state     14
 New state     19 was old state     21
 New state     20 was old state     34
 New state     21 was old state     23
 New state     22 was old state     33
 New state     23 was old state     37
 New state     24 was old state     28
 New state     26 was old state     39
 New state     27 was old state     17
 New state     28 was old state     26
 New state     29 was old state     27
 New state     30 was old state     24
 New state     31 was old state     44
 New state     32 was old state     30
 New state     33 was old state     48
 New state     34 was old state     31
 New state     35 was old state     22
 New state     36 was old state     11
 New state     37 was old state     32
 New state     38 was old state     35
 New state     39 was old state     36
 New state     40 was old state     49
 Excitation Energies [eV] at current iteration:
 Root      1 :     3.834518634792615
 Root      2 :     4.041874508740247
 Root      3 :     5.317965943097470
 Root      4 :     5.681732156799772
 Root      5 :     5.911443381667984
 Root      6 :     6.039008289899176
 Root      7 :     6.048973608237047
 Root      8 :     6.536767218329278
 Root      9 :     6.782682888763424
 Root     10 :     6.791507046262201
 Root     11 :     6.991671855253069
 Root     12 :     7.009065751569730
 Root     13 :     7.050281522950075
 Root     14 :     7.092578616489102
 Root     15 :     7.121954240903031
 Root     16 :     7.148437916560389
 Root     17 :     7.222539805901401
 Root     18 :     7.462423475416045
 Root     19 :     7.951749092419051
 Root     20 :     7.972472383580257
 Root     21 :     7.976620327182546
 Root     22 :     8.022286310562450
 Root     23 :     8.187560525803065
 Root     24 :     8.205402254783570
 Root     25 :     8.220033112301941
 Root     26 :     8.315000838645309
 Root     27 :     8.330383877657008
 Root     28 :     8.397179789393107
 Root     29 :     8.420901325984808
 Root     30 :     8.485749034085375
 Root     31 :     8.512377249421975
 Root     32 :     8.564909955842397
 Root     33 :     8.657869691594591
 Root     34 :     8.707549138613135
 Root     35 :     8.753087096080653
 Root     36 :     8.761044690195048
 Root     37 :     8.844250634350603
 Root     38 :     8.867580543351899
 Root     39 :     8.892158219520997
 Root     40 :     8.975156647309433
 Root     41 :     9.064876236542680
 Root     42 :     9.103951552719600
 Root     43 :     9.189953792919225
 Root     44 :     9.195397486401525
 Root     45 :     9.241366315194428
 Root     46 :     9.277534941248767
 Root     47 :     9.286126437920005
 Root     48 :     9.319602241307646
 Root     49 :     9.346558275033120
 Root     50 :     9.396038026658735
 Root     51 :     9.426480910106473
 Root     52 :     9.468406214980437
 Root     53 :     9.506632332286818
 Root     54 :     9.544306458472418
 Root     55 :     9.572579006480924
 Root     56 :     9.612584325718057
 Root     57 :     9.703350589096996
 Root     58 :     9.736986112230056
 Root     59 :     9.767645369223979
 Root     60 :     9.888311323695770
 Root     61 :     9.901921550789307
 Root     62 :     9.983570386636881
 Root     63 :    10.071462303696975
 Root     64 :    10.140099035979912
 Root     65 :    10.162446006482440
 Root     66 :    10.212192074314398
 Root     67 :    10.218351363527850
 Root     68 :    10.291143306602091
 Root     69 :    10.378488795268554
 Root     70 :    10.490188392484498
 Root     71 :    10.548749790188111
 Root     72 :    10.594844861530316
 Root     73 :    10.645573532851609
 Root     74 :    10.653787119688873
 Root     75 :    10.655798203640677
 Root     76 :    10.664817883782741
 Root     77 :    10.732946117402983
 Root     78 :    10.761944198655996
 Root     79 :    10.783826285384567
 Root     80 :    10.800589285837797
 Root     81 :    10.846602167650616
 Root     82 :    10.884790595635703
 Root     83 :    10.892819380576007
 Root     84 :    10.893401979768905
 Root     85 :    10.909427578229053
 Root     86 :    10.917226278032489
 Root     87 :    10.923443274301668
 Root     88 :    10.993648395153786
 Root     89 :    11.016787528818131
 Root     90 :    11.048196243707388
 Root     91 :    11.084309297707616
 Root     92 :    11.107046669191460
 Root     93 :    11.191279466201633
 Root     94 :    11.210906693329784
 Root     95 :    11.252542488577955
 Root     96 :    11.285932389891252
 Root     97 :    11.340851009976754
 Root     98 :    11.400287774605477
 Root     99 :    11.410118971780797
 Root    100 :    11.427827226680680
 Root    101 :    11.455944670080470
 Root    102 :    11.458172135719346
 Root    103 :    11.468711309612285
 Root    104 :    11.495000828224928
 Root    105 :    11.503901473896418
 Root    106 :    11.552647463635971
 Root    107 :    11.584584818915651
 Root    108 :    11.591548067671221
 Root    109 :    11.618983510706785
 Root    110 :    11.648410322259100
 Root    111 :    11.688368435714791
 Root    112 :    11.704409869234105
 Root    113 :    11.727691446056786
 Root    114 :    11.733447717971275
 Root    115 :    11.751640830626339
 Root    116 :    11.761916814788352
 Root    117 :    11.792462008871581
 Root    118 :    11.837568790636105
 Root    119 :    11.959588914826567
 Root    120 :    11.962532207854604
 Root    121 :    12.001392271425095
 Root    122 :    12.030944359690414
 Root    123 :    12.073020378955526
 Root    124 :    12.112967903791141
 Root    125 :    12.152512710456582
 Root    126 :    12.169418200015004
 Root    127 :    12.248592510553747
 Root    128 :    12.257329372217386
 Root    129 :    12.301206751134615
 Root    130 :    12.308937797627184
 Root    131 :    12.349706740178350
 Root    132 :    12.422968867474699
 Root    133 :    12.504047056099337
 Root    134 :    12.512074191909811
 Root    135 :    12.523485897860953
 Root    136 :    12.527551530711071
 Root    137 :    12.563421751890358
 Root    138 :    12.569539337396593
 Root    139 :    12.584194676741870
 Root    140 :    12.634122137050964
 Root    141 :    12.659673473676550
 Root    142 :    12.663355167704726
 Root    143 :    12.701926656672637
 Root    144 :    12.707054569262501
 Root    145 :    12.757615416479624
 Root    146 :    12.782531191705827
 Root    147 :    12.827801088108293
 Root    148 :    12.855635624709018
 Root    149 :    12.872004232415645
 Root    150 :    12.917994435095983
 Root    151 :    12.942535697794877
 Root    152 :    13.064283908627360
 Root    153 :    13.125182732640203
 Root    154 :    13.128014824785987
 Root    155 :    13.171559867066188
 Root    156 :    13.309630648819123
 Root    157 :    13.332359950527620
 Root    158 :    13.346034855146030
 Root    159 :    13.360034512545628
 Root    160 :    13.506142475025188
 Iteration     2 Dimension   240 NMult   160 NNew     80
 CISAX will form    80 AO SS matrices at one time.
 NMat=    80 NSing=    80 JSym2X= 0.
 Root      1 not converged, maximum delta is    0.050489896814393
 Root      2 not converged, maximum delta is    0.028313148745508
 Root      3 not converged, maximum delta is    0.460423415635177
 Root      4 not converged, maximum delta is    0.438257669311255
 New state      5 was old state      7
 Root      5 not converged, maximum delta is    0.234590871147334
 New state      6 was old state      5
 Root      6 not converged, maximum delta is    0.038982498391451
 New state      7 was old state      6
 Root      7 not converged, maximum delta is    0.132592835057129
 New state      8 was old state      9
 Root      8 not converged, maximum delta is    0.180207341322240
 New state      9 was old state     17
 Root      9 not converged, maximum delta is    0.337917515882228
 New state     10 was old state      8
 Root     10 not converged, maximum delta is    0.312804300468558
 New state     11 was old state     10
 Root     11 not converged, maximum delta is    0.158346539607513
 New state     12 was old state     11
 Root     12 not converged, maximum delta is    0.102629924323184
 Root     13 not converged, maximum delta is    0.203264391250805
 New state     14 was old state     12
 Root     14 not converged, maximum delta is    0.173057233327567
 Root     15 not converged, maximum delta is    0.116914326944695
 New state     16 was old state     14
 Root     16 not converged, maximum delta is    0.087227990028506
 New state     17 was old state     16
 Root     17 not converged, maximum delta is    0.102089192230739
 Root     18 not converged, maximum delta is    0.226542497865115
 New state     19 was old state     36
 Root     19 not converged, maximum delta is    0.280916266173972
 New state     20 was old state     25
 Root     20 not converged, maximum delta is    0.318261217837194
 New state     21 was old state     27
 Root     21 not converged, maximum delta is    0.252980607684591
 New state     22 was old state     20
 Root     22 not converged, maximum delta is    0.356112197157809
 New state     23 was old state     22
 Root     23 not converged, maximum delta is    0.184725681655387
 New state     24 was old state     19
 Root     24 not converged, maximum delta is    0.161674555400146
 New state     25 was old state     21
 Root     25 not converged, maximum delta is    0.296584710310923
 New state     26 was old state     24
 Root     26 not converged, maximum delta is    0.530775328935378
 New state     27 was old state     23
 Root     27 not converged, maximum delta is    0.397970943762801
 New state     28 was old state     26
 Root     28 not converged, maximum delta is    0.296884175548729
 New state     29 was old state     30
 Root     29 not converged, maximum delta is    0.439837954308153
 New state     30 was old state     28
 Root     30 not converged, maximum delta is    0.146997429236512
 Root     31 not converged, maximum delta is    0.410292844586442
 New state     32 was old state     29
 Root     32 not converged, maximum delta is    0.379765928277470
 Root     33 not converged, maximum delta is    0.241857428108613
 New state     34 was old state     32
 Root     34 not converged, maximum delta is    0.266418584212200
 Root     35 not converged, maximum delta is    0.315823408866479
 New state     36 was old state     45
 Root     36 not converged, maximum delta is    0.392665724401184
 New state     37 was old state     34
 Root     37 not converged, maximum delta is    0.146395032408414
 New state     38 was old state     37
 Root     38 not converged, maximum delta is    0.103081547562375
 Root     39 not converged, maximum delta is    0.116067147167318
 New state     40 was old state     38
 Root     40 not converged, maximum delta is    0.252710486440827
 Excitation Energies [eV] at current iteration:
 Root      1 :     3.467986827515731   Change is   -0.366531807276884
 Root      2 :     3.973743387576388   Change is   -0.068131121163860
 Root      3 :     5.131246540074602   Change is   -0.186719403022869
 Root      4 :     5.403713011700769   Change is   -0.278019145099002
 Root      5 :     5.445608417329125   Change is   -0.603365190907922
 Root      6 :     5.841759218607154   Change is   -0.069684163060829
 Root      7 :     5.969432488516241   Change is   -0.069575801382935
 Root      8 :     6.154451403190598   Change is   -0.628231485572826
 Root      9 :     6.418785487809781   Change is   -0.803754318091620
 Root     10 :     6.483205753195007   Change is   -0.053561465134272
 Root     11 :     6.659090300776452   Change is   -0.132416745485749
 Root     12 :     6.897613525481350   Change is   -0.094058329771719
 Root     13 :     6.934649818628076   Change is   -0.115631704321999
 Root     14 :     6.967421435132061   Change is   -0.041644316437669
 Root     15 :     7.034393717228184   Change is   -0.087560523674847
 Root     16 :     7.050337302174584   Change is   -0.042241314314518
 Root     17 :     7.100684727807526   Change is   -0.047753188752863
 Root     18 :     7.216597830140906   Change is   -0.245825645275138
 Root     19 :     7.566628843065796   Change is   -1.194415847129252
 Root     20 :     7.722148043970280   Change is   -0.497885068331662
 Root     21 :     7.798908757974936   Change is   -0.531475119682072
 Root     22 :     7.863547478906126   Change is   -0.108924904674131
 Root     23 :     7.885466005835823   Change is   -0.136820304726627
 Root     24 :     7.899848261849434   Change is   -0.051900830569616
 Root     25 :     7.919803520331580   Change is   -0.056816806850967
 Root     26 :     7.929219503580589   Change is   -0.276182751202980
 Root     27 :     8.100897081200561   Change is   -0.086663444602505
 Root     28 :     8.160624803334462   Change is   -0.154376035310847
 Root     29 :     8.190494648886862   Change is   -0.295254385198514
 Root     30 :     8.327634958137963   Change is   -0.069544831255143
 Root     31 :     8.352352836341002   Change is   -0.160024413080974
 Root     32 :     8.359401797018482   Change is   -0.061499528966326
 Root     33 :     8.383569250903633   Change is   -0.274300440690957
 Root     34 :     8.516563151717303   Change is   -0.048346804125094
 Root     35 :     8.521179694103131   Change is   -0.231907401977523
 Root     36 :     8.549033785986836   Change is   -0.692332529207592
 Root     37 :     8.669271952141953   Change is   -0.038277186471183
 Root     38 :     8.781580834165851   Change is   -0.062669800184752
 Root     39 :     8.798854663150292   Change is   -0.093303556370704
 Root     40 :     8.839615240655617   Change is   -0.027965302696281
 Iteration     3 Dimension   320 NMult   240 NNew     80
 CISAX will form    80 AO SS matrices at one time.
 NMat=    80 NSing=    80 JSym2X= 0.
 Root      1 not converged, maximum delta is    0.003448384746805
 Root      2 not converged, maximum delta is    0.001325377256422
 Root      3 not converged, maximum delta is    0.009168135610537
 Root      4 not converged, maximum delta is    0.179520292260073
 Root      5 not converged, maximum delta is    0.225500423262035
 Root      6 not converged, maximum delta is    0.001108817532881
 Root      7 not converged, maximum delta is    0.006942019229460
 Root      8 not converged, maximum delta is    0.005091453554545
 Root      9 not converged, maximum delta is    0.047410493466677
 Root     10 not converged, maximum delta is    0.040971129952452
 Root     11 not converged, maximum delta is    0.004316978350562
 Root     12 not converged, maximum delta is    0.001901514300592
 Root     13 not converged, maximum delta is    0.016884399824360
 Root     14 not converged, maximum delta is    0.011622758766445
 Root     15 not converged, maximum delta is    0.002333071593252
 Root     16 not converged, maximum delta is    0.002999270872648
 Root     17 not converged, maximum delta is    0.002756969169559
 Root     18 not converged, maximum delta is    0.032383131099321
 Root     19 not converged, maximum delta is    0.028793424949775
 Root     20 not converged, maximum delta is    0.005506030465087
 Root     21 not converged, maximum delta is    0.020931985477485
 Root     22 not converged, maximum delta is    0.017205125644334
 Root     23 not converged, maximum delta is    0.022111760135156
 Root     24 not converged, maximum delta is    0.012635913333638
 Root     25 not converged, maximum delta is    0.159976100709459
 Root     26 not converged, maximum delta is    0.103821095649466
 Root     27 not converged, maximum delta is    0.021105379730850
 Root     28 not converged, maximum delta is    0.114108295765656
 Root     29 not converged, maximum delta is    0.152193457126467
 Root     30 not converged, maximum delta is    0.045098574100857
 Root     31 not converged, maximum delta is    0.121955579906207
 Root     32 not converged, maximum delta is    0.112320318449186
 Root     33 not converged, maximum delta is    0.070853332156055
 New state     34 was old state     35
 Root     34 not converged, maximum delta is    0.224397579997332
 New state     35 was old state     34
 Root     35 not converged, maximum delta is    0.187638754821988
 Root     36 not converged, maximum delta is    0.115536113820162
 Root     37 not converged, maximum delta is    0.013437772990883
 Root     38 not converged, maximum delta is    0.004301590180988
 Root     39 not converged, maximum delta is    0.013521941272185
 Root     40 not converged, maximum delta is    0.019473073703049
 Excitation Energies [eV] at current iteration:
 Root      1 :     3.459559525036144   Change is   -0.008427302479588
 Root      2 :     3.972467760542893   Change is   -0.001275627033495
 Root      3 :     5.124011141706836   Change is   -0.007235398367766
 Root      4 :     5.391022528686593   Change is   -0.012690483014177
 Root      5 :     5.420943356650477   Change is   -0.024665060678647
 Root      6 :     5.840371907458524   Change is   -0.001387311148631
 Root      7 :     5.966910618542163   Change is   -0.002521869974078
 Root      8 :     6.142560509925705   Change is   -0.011890893264894
 Root      9 :     6.407017716995293   Change is   -0.011767770814488
 Root     10 :     6.479177530390287   Change is   -0.004028222804720
 Root     11 :     6.655927804153295   Change is   -0.003162496623157
 Root     12 :     6.895445355190746   Change is   -0.002168170290603
 Root     13 :     6.930762795172424   Change is   -0.003887023455652
 Root     14 :     6.966258327644706   Change is   -0.001163107487354
 Root     15 :     7.032618351081027   Change is   -0.001775366147158
 Root     16 :     7.049434554188330   Change is   -0.000902747986253
 Root     17 :     7.099573264683337   Change is   -0.001111463124188
 Root     18 :     7.204140929629236   Change is   -0.012456900511671
 Root     19 :     7.516772075918380   Change is   -0.049856767147415
 Root     20 :     7.714585903424007   Change is   -0.007562140546272
 Root     21 :     7.780939350223039   Change is   -0.017969407751897
 Root     22 :     7.858369317440993   Change is   -0.005178161465133
 Root     23 :     7.880627043689747   Change is   -0.004838962146077
 Root     24 :     7.898376676225378   Change is   -0.001471585624057
 Root     25 :     7.913778601114975   Change is   -0.006024919216604
 Root     26 :     7.925496303125818   Change is   -0.003723200454772
 Root     27 :     8.096665049500603   Change is   -0.004232031699957
 Root     28 :     8.150292743589940   Change is   -0.010332059744522
 Root     29 :     8.170807483627325   Change is   -0.019687165259537
 Root     30 :     8.325128337874588   Change is   -0.002506620263377
 Root     31 :     8.346836654115631   Change is   -0.005516182225371
 Root     32 :     8.357117236982642   Change is   -0.002284560035840
 Root     33 :     8.371170443197835   Change is   -0.012398807705799
 Root     34 :     8.508841474810040   Change is   -0.012338219293090
 Root     35 :     8.511065268601083   Change is   -0.005497883116221
 Root     36 :     8.539601699002752   Change is   -0.009432086984085
 Root     37 :     8.666946256239754   Change is   -0.002325695902198
 Root     38 :     8.780000477008548   Change is   -0.001580357157305
 Root     39 :     8.795030071990974   Change is   -0.003824591159320
 Root     40 :     8.834000747660300   Change is   -0.005614492995318
 Iteration     4 Dimension   400 NMult   320 NNew     80
 CISAX will form    80 AO SS matrices at one time.
 NMat=    80 NSing=    80 JSym2X= 0.
 Root      1 has converged.
 Root      2 has converged.
 Root      3 has converged.
 Root      4 not converged, maximum delta is    0.005238115057031
 Root      5 not converged, maximum delta is    0.004176867610183
 Root      6 has converged.
 Root      7 has converged.
 Root      8 has converged.
 Root      9 not converged, maximum delta is    0.001006926282398
 Root     10 has converged.
 Root     11 has converged.
 Root     12 has converged.
 Root     13 has converged.
 Root     14 has converged.
 Root     15 has converged.
 Root     16 has converged.
 Root     17 has converged.
 Root     18 not converged, maximum delta is    0.001167763207913
 Root     19 not converged, maximum delta is    0.001682749722541
 Root     20 has converged.
 Root     21 has converged.
 Root     22 has converged.
 Root     23 has converged.
 Root     24 has converged.
 Root     25 not converged, maximum delta is    0.003415091163418
 Root     26 not converged, maximum delta is    0.002258784744673
 Root     27 has converged.
 Root     28 not converged, maximum delta is    0.001987910915279
 Root     29 not converged, maximum delta is    0.003188868842045
 Root     30 not converged, maximum delta is    0.002139174572657
 Root     31 not converged, maximum delta is    0.004274514744160
 Root     32 not converged, maximum delta is    0.003122700056727
 Root     33 not converged, maximum delta is    0.001845403975848
 Root     34 not converged, maximum delta is    0.002363923202317
 Root     35 not converged, maximum delta is    0.002780463924177
 Root     36 not converged, maximum delta is    0.002843992962729
 Root     37 has converged.
 Root     38 has converged.
 Root     39 not converged, maximum delta is    0.001710012440956
 Root     40 not converged, maximum delta is    0.008441874519885
 Excitation Energies [eV] at current iteration:
 Root      1 :     3.459422277281968   Change is   -0.000137247754176
 Root      2 :     3.972441952791501   Change is   -0.000025807751392
 Root      3 :     5.123897257843812   Change is   -0.000113883863024
 Root      4 :     5.390646641952503   Change is   -0.000375886734090
 Root      5 :     5.420632950839478   Change is   -0.000310405811000
 Root      6 :     5.840336083946167   Change is   -0.000035823512356
 Root      7 :     5.966864002240906   Change is   -0.000046616301257
 Root      8 :     6.142235085289853   Change is   -0.000325424635852
 Root      9 :     6.406742761232466   Change is   -0.000274955762827
 Root     10 :     6.479089284884750   Change is   -0.000088245505537
 Root     11 :     6.655877116540865   Change is   -0.000050687612431
 Root     12 :     6.895395221120189   Change is   -0.000050134070557
 Root     13 :     6.930635301166739   Change is   -0.000127494005685
 Root     14 :     6.966234459164992   Change is   -0.000023868479714
 Root     15 :     7.032583946274396   Change is   -0.000034404806631
 Root     16 :     7.049415580462794   Change is   -0.000018973725536
 Root     17 :     7.099552460683989   Change is   -0.000020803999349
 Root     18 :     7.203725563811529   Change is   -0.000415365817707
 Root     19 :     7.515192649882089   Change is   -0.001579426036291
 Root     20 :     7.714318179822463   Change is   -0.000267723601544
 Root     21 :     7.780260703669283   Change is   -0.000678646553756
 Root     22 :     7.858213867576827   Change is   -0.000155449864166
 Root     23 :     7.880510556293251   Change is   -0.000116487396496
 Root     24 :     7.898328640559387   Change is   -0.000048035665990
 Root     25 :     7.913578842186862   Change is   -0.000199758928114
 Root     26 :     7.925424690228617   Change is   -0.000071612897201
 Root     27 :     8.096526939573767   Change is   -0.000138109926836
 Root     28 :     8.149858929380763   Change is   -0.000433814209178
 Root     29 :     8.170359589791680   Change is   -0.000447893835645
 Root     30 :     8.325044841794442   Change is   -0.000083496080145
 Root     31 :     8.346578727941941   Change is   -0.000257926173689
 Root     32 :     8.357048397010130   Change is   -0.000068839972512
 Root     33 :     8.370742975342825   Change is   -0.000427467855009
 Root     34 :     8.508430308056630   Change is   -0.000411166753410
 Root     35 :     8.510890817441283   Change is   -0.000174451159799
 Root     36 :     8.539406260479348   Change is   -0.000195438523404
 Root     37 :     8.666884700215936   Change is   -0.000061556023819
 Root     38 :     8.779949621610141   Change is   -0.000050855398405
 Root     39 :     8.794868332783059   Change is   -0.000161739207913
 Root     40 :     8.833790852077859   Change is   -0.000209895582439
 Iteration     5 Dimension   436 NMult   400 NNew     36
 CISAX will form    36 AO SS matrices at one time.
 NMat=    36 NSing=    36 JSym2X= 0.
 Root      1 has converged.
 Root      2 has converged.
 Root      3 has converged.
 Root      4 has converged.
 Root      5 has converged.
 Root      6 has converged.
 Root      7 has converged.
 Root      8 has converged.
 Root      9 has converged.
 Root     10 has converged.
 Root     11 has converged.
 Root     12 has converged.
 Root     13 has converged.
 Root     14 has converged.
 Root     15 has converged.
 Root     16 has converged.
 Root     17 has converged.
 Root     18 has converged.
 Root     19 has converged.
 Root     20 has converged.
 Root     21 has converged.
 Root     22 has converged.
 Root     23 has converged.
 Root     24 has converged.
 Root     25 has converged.
 Root     26 has converged.
 Root     27 has converged.
 Root     28 has converged.
 Root     29 has converged.
 Root     30 has converged.
 Root     31 has converged.
 Root     32 has converged.
 Root     33 has converged.
 Root     34 has converged.
 Root     35 has converged.
 Root     36 has converged.
 Root     37 has converged.
 Root     38 has converged.
 Root     39 has converged.
 Root     40 not converged, maximum delta is    0.001169475896469
 Excitation Energies [eV] at current iteration:
 Root      1 :     3.459422118123070   Change is   -0.000000159158898
 Root      2 :     3.972441838186485   Change is   -0.000000114605016
 Root      3 :     5.123896238672491   Change is   -0.000001019171320
 Root      4 :     5.390641672280203   Change is   -0.000004969672300
 Root      5 :     5.420628965377644   Change is   -0.000003985461833
 Root      6 :     5.840335935185615   Change is   -0.000000148760553
 Root      7 :     5.966863422134971   Change is   -0.000000580105935
 Root      8 :     6.142234305832202   Change is   -0.000000779457651
 Root      9 :     6.406736775756149   Change is   -0.000005985476317
 Root     10 :     6.479087776542192   Change is   -0.000001508342557
 Root     11 :     6.655876934757285   Change is   -0.000000181783580
 Root     12 :     6.895394718575325   Change is   -0.000000502544864
 Root     13 :     6.930633311751762   Change is   -0.000001989414978
 Root     14 :     6.966234231642175   Change is   -0.000000227522818
 Root     15 :     7.032583683928739   Change is   -0.000000262345656
 Root     16 :     7.049415421624739   Change is   -0.000000158838055
 Root     17 :     7.099552363620991   Change is   -0.000000097062998
 Root     18 :     7.203716494200533   Change is   -0.000009069610995
 Root     19 :     7.515154045086510   Change is   -0.000038604795581
 Root     20 :     7.714312664587571   Change is   -0.000005515234892
 Root     21 :     7.780255631738426   Change is   -0.000005071930856
 Root     22 :     7.858211694315130   Change is   -0.000002173261697
 Root     23 :     7.880509696656950   Change is   -0.000000859636301
 Root     24 :     7.898327733175617   Change is   -0.000000907383770
 Root     25 :     7.913572141174388   Change is   -0.000006701012474
 Root     26 :     7.925422431413018   Change is   -0.000002258815598
 Root     27 :     8.096525151950511   Change is   -0.000001787623258
 Root     28 :     8.149846129309946   Change is   -0.000012800070817
 Root     29 :     8.170345660137896   Change is   -0.000013929653784
 Root     30 :     8.325041574915163   Change is   -0.000003266879280
 Root     31 :     8.346569588883506   Change is   -0.000009139058436
 Root     32 :     8.357046048426307   Change is   -0.000002348583824
 Root     33 :     8.370727703883379   Change is   -0.000015271459447
 Root     34 :     8.508414716481404   Change is   -0.000015591575225
 Root     35 :     8.510884993388233   Change is   -0.000005824053050
 Root     36 :     8.539399462983265   Change is   -0.000006797496083
 Root     37 :     8.666883941998073   Change is   -0.000000758217863
 Root     38 :     8.779949117281465   Change is   -0.000000504328677
 Root     39 :     8.794862277090187   Change is   -0.000006055692872
 Root     40 :     8.833779771727185   Change is   -0.000011080350676
 Iteration     6 Dimension   438 NMult   436 NNew      2
 CISAX will form     2 AO SS matrices at one time.
 NMat=     2 NSing=     2 JSym2X= 0.
 Root      1 has converged.
 Root      2 has converged.
 Root      3 has converged.
 Root      4 has converged.
 Root      5 has converged.
 Root      6 has converged.
 Root      7 has converged.
 Root      8 has converged.
 Root      9 has converged.
 Root     10 has converged.
 Root     11 has converged.
 Root     12 has converged.
 Root     13 has converged.
 Root     14 has converged.
 Root     15 has converged.
 Root     16 has converged.
 Root     17 has converged.
 Root     18 has converged.
 Root     19 has converged.
 Root     20 has converged.
 Root     21 has converged.
 Root     22 has converged.
 Root     23 has converged.
 Root     24 has converged.
 Root     25 has converged.
 Root     26 has converged.
 Root     27 has converged.
 Root     28 has converged.
 Root     29 has converged.
 Root     30 has converged.
 Root     31 has converged.
 Root     32 has converged.
 Root     33 has converged.
 Root     34 has converged.
 Root     35 has converged.
 Root     36 has converged.
 Root     37 has converged.
 Root     38 has converged.
 Root     39 has converged.
 Root     40 has converged.
 Excitation Energies [eV] at current iteration:
 Root      1 :     3.459422117520669   Change is   -0.000000000602401
 Root      2 :     3.972441837950630   Change is   -0.000000000235855
 Root      3 :     5.123896230996971   Change is   -0.000000007675520
 Root      4 :     5.390641671967225   Change is   -0.000000000312977
 Root      5 :     5.420628962463058   Change is   -0.000000002914585
 Root      6 :     5.840335934892542   Change is   -0.000000000293073
 Root      7 :     5.966863421944443   Change is   -0.000000000190528
 Root      8 :     6.142234303738773   Change is   -0.000000002093428
 Root      9 :     6.406736775681829   Change is   -0.000000000074320
 Root     10 :     6.479087774476540   Change is   -0.000000002065653
 Root     11 :     6.655876933043062   Change is   -0.000000001714223
 Root     12 :     6.895394717354873   Change is   -0.000000001220452
 Root     13 :     6.930633311323206   Change is   -0.000000000428555
 Root     14 :     6.966234229641116   Change is   -0.000000002001059
 Root     15 :     7.032583682933026   Change is   -0.000000000995713
 Root     16 :     7.049415420490904   Change is   -0.000000001133835
 Root     17 :     7.099552361825951   Change is   -0.000000001795040
 Root     18 :     7.203716494107173   Change is   -0.000000000093360
 Root     19 :     7.515154038329551   Change is   -0.000000006756958
 Root     20 :     7.714312647060198   Change is   -0.000000017527373
 Root     21 :     7.780255622817132   Change is   -0.000000008921294
 Root     22 :     7.858211660292533   Change is   -0.000000034022596
 Root     23 :     7.880509695003235   Change is   -0.000000001653714
 Root     24 :     7.898327718541714   Change is   -0.000000014633903
 Root     25 :     7.913572130788848   Change is   -0.000000010385541
 Root     26 :     7.925422422847461   Change is   -0.000000008565557
 Root     27 :     8.096525131744237   Change is   -0.000000020206274
 Root     28 :     8.149846087129127   Change is   -0.000000042180818
 Root     29 :     8.170345581331562   Change is   -0.000000078806334
 Root     30 :     8.325041572781817   Change is   -0.000000002133346
 Root     31 :     8.346569568418509   Change is   -0.000000020464995
 Root     32 :     8.357046046749398   Change is   -0.000000001676909
 Root     33 :     8.370727684435588   Change is   -0.000000019447792
 Root     34 :     8.508414709046489   Change is   -0.000000007434915
 Root     35 :     8.510884966109254   Change is   -0.000000027278979
 Root     36 :     8.539399430804210   Change is   -0.000000032179055
 Root     37 :     8.666883929146646   Change is   -0.000000012851426
 Root     38 :     8.779949107255600   Change is   -0.000000010025864
 Root     39 :     8.794862268389888   Change is   -0.000000008700300
 Root     40 :     8.833779085676134   Change is   -0.000000686051049
 Convergence achieved on expansion vectors.
 ***********************************************************************
 Excited states from <AA,BB:AA,BB> singles matrix:
 ***********************************************************************
 
 1PDM for each excited state written to RWF  633
 Ground to excited state transition densities written to RWF  633
 Ground to excited state transition electric dipole moments (Au):
       state          X           Y           Z        Dip. S.      Osc.
         1         0.0218     -0.9911      0.0377      0.9842      0.0834
         2         0.2172      0.0009      0.0002      0.0472      0.0046
         3         0.3398      0.0005     -0.0236      0.1160      0.0146
         4         2.8895      0.0157     -0.0074      8.3495      1.1027
         5        -2.5200     -0.0086     -0.0116      6.3508      0.8434
         6        -0.0176     -0.0402      0.0055      0.0020      0.0003
         7        -0.0061     -0.0885      0.0410      0.0096      0.0014
         8         0.0403     -0.9595     -0.0248      0.9228      0.1389
         9        -0.0398      0.2123      0.0382      0.0481      0.0076
        10         0.0121     -0.1076     -0.0793      0.0180      0.0029
        11         0.2822      0.0063     -0.0118      0.0798      0.0130
        12        -0.2434     -0.0193      0.0022      0.0596      0.0101
        13         0.0202     -0.0405     -0.0747      0.0076      0.0013
        14         0.0115     -0.0014      0.0206      0.0006      0.0001
        15        -0.0963     -0.0012     -0.0027      0.0093      0.0016
        16         0.0298     -0.0529      0.0415      0.0054      0.0009
        17         0.0971      0.0164     -0.0197      0.0101      0.0018
        18         0.0057      0.0810     -0.1532      0.0301      0.0053
        19         0.0129      0.2406     -0.3917      0.2114      0.0389
        20        -0.1720      0.1422      0.0048      0.0498      0.0094
        21        -0.0081     -1.4341     -0.0595      2.0601      0.3927
        22         0.1001     -0.0379     -0.0281      0.0122      0.0024
        23        -0.0050     -0.2467     -0.0250      0.0615      0.0119
        24         0.0875     -0.0346     -0.0317      0.0099      0.0019
        25         0.1205     -0.0021     -0.0004      0.0145      0.0028
        26        -0.0979     -0.0790     -0.0101      0.0159      0.0031
        27         0.0146     -0.1442      0.1078      0.0326      0.0065
        28        -0.0189      0.0032      0.1556      0.0246      0.0049
        29         0.0734      0.0349      0.1670      0.0345      0.0069
        30        -0.1031     -0.0029      0.0513      0.0133      0.0027
        31        -0.1851      0.0057      0.0876      0.0420      0.0086
        32        -0.0266      0.0698     -0.1846      0.0396      0.0081
        33         0.3714      0.0079      0.0386      0.1395      0.0286
        34        -0.0644      0.0017     -0.0111      0.0043      0.0009
        35        -0.0240     -0.0000      0.0188      0.0009      0.0002
        36         0.0843     -0.0033      0.0018      0.0071      0.0015
        37         0.0593     -0.0085      0.0118      0.0037      0.0008
        38         0.0257     -0.0052     -0.2477      0.0620      0.0133
        39        -0.1686     -0.0247     -0.0254      0.0297      0.0064
        40         0.0413     -0.0390      0.0092      0.0033      0.0007
 Ground to excited state transition velocity dipole moments (Au):
       state          X           Y           Z        Dip. S.      Osc.
         1        -0.0028      0.1423     -0.0049      0.0203      0.1063
         2        -0.0250     -0.0002      0.0000      0.0006      0.0028
         3        -0.0618     -0.0001      0.0044      0.0038      0.0136
         4        -0.5586     -0.0033      0.0022      0.3121      1.0503
         5         0.4892      0.0017      0.0031      0.2394      0.8010
         6         0.0034      0.0093      0.0001      0.0001      0.0003
         7         0.0018      0.0208     -0.0103      0.0005      0.0017
         8        -0.0091      0.2236      0.0059      0.0501      0.1481
         9         0.0091     -0.0538     -0.0086      0.0030      0.0086
        10        -0.0028      0.0273      0.0187      0.0011      0.0031
        11        -0.0676     -0.0015      0.0028      0.0046      0.0125
        12         0.0624      0.0049     -0.0010      0.0039      0.0103
        13        -0.0053      0.0102      0.0166      0.0004      0.0011
        14        -0.0031      0.0004     -0.0031      0.0000      0.0001
        15         0.0247      0.0000      0.0006      0.0006      0.0016
        16        -0.0080      0.0161     -0.0139      0.0005      0.0013
        17        -0.0250     -0.0051      0.0057      0.0007      0.0017
        18        -0.0014     -0.0215      0.0405      0.0021      0.0053
        19        -0.0033     -0.0642      0.1010      0.0143      0.0346
        20         0.0474     -0.0393     -0.0010      0.0038      0.0089
        21         0.0024      0.4006      0.0171      0.1608      0.3750
        22        -0.0307      0.0109      0.0073      0.0011      0.0026
        23         0.0005      0.0701      0.0069      0.0050      0.0114
        24        -0.0284      0.0113      0.0117      0.0011      0.0025
        25        -0.0365      0.0013      0.0012      0.0013      0.0031
        26         0.0342      0.0247      0.0036      0.0018      0.0041
        27        -0.0049      0.0420     -0.0320      0.0028      0.0063
        28         0.0066     -0.0011     -0.0448      0.0021      0.0046
        29        -0.0229     -0.0104     -0.0504      0.0032      0.0071
        30         0.0314      0.0011     -0.0203      0.0014      0.0030
        31         0.0543     -0.0017     -0.0351      0.0042      0.0091
        32         0.0086     -0.0219      0.0845      0.0077      0.0167
        33        -0.1109     -0.0021     -0.0171      0.0126      0.0273
        34         0.0179     -0.0007      0.0038      0.0003      0.0007
        35         0.0099      0.0002     -0.0110      0.0002      0.0005
        36        -0.0263      0.0012      0.0015      0.0007      0.0015
        37        -0.0174      0.0026     -0.0032      0.0003      0.0007
        38        -0.0083      0.0019      0.1164      0.0136      0.0282
        39         0.0577      0.0081      0.0119      0.0035      0.0073
        40        -0.0153      0.0122     -0.0018      0.0004      0.0008
 Ground to excited state transition magnetic dipole moments (Au):
       state          X           Y           Z
         1        -0.1976     -0.0319      0.0111
         2         0.0061      0.0132     -0.0640
         3        -0.0040      0.0140      1.2027
         4         0.0077      0.3042      0.8479
         5         0.0054     -0.2831      1.0863
         6        -0.0431     -0.0204      0.0010
         7         0.1529      0.0298     -0.0249
         8        -0.0636     -0.0340     -0.0046
         9         0.1571      0.0251     -0.0055
        10        -0.0264     -0.0216      0.0082
        11         0.0035      0.0778      0.1562
        12        -0.0115     -0.0913     -0.1527
        13        -0.0088     -0.0350     -0.0013
        14        -0.2312      0.0146      0.0100
        15         0.0138      0.3784      0.0286
        16        -0.0456      0.0043      0.0485
        17         0.0086     -0.0049      0.0948
        18         0.0076      0.0085      0.0144
        19        -0.0217      0.0285     -0.0028
        20         0.0065      0.0245      0.8953
        21        -0.0203     -0.0553      0.0928
        22        -0.0085      0.0942     -0.4424
        23        -0.1532      0.0103      0.1757
        24         0.4267     -0.4767      0.1395
        25         0.1033      0.4512      0.6636
        26         0.2506      0.6700     -0.4428
        27         0.0008     -0.0123     -0.4412
        28         0.0608     -0.0214      1.1187
        29         0.0718      0.0323     -1.3948
        30         0.0832      0.2999     -0.2034
        31         0.2938     -0.1633     -0.0116
        32         0.1591      0.0461     -0.0145
        33         0.1799      0.0726      0.0692
        34        -0.0136      0.3506     -0.1791
        35         0.0013      0.1731      0.6653
        36         0.0075     -0.0630     -0.4778
        37        -0.0045      0.0212     -0.0848
        38         0.0031      0.0169     -0.0005
        39         0.0647     -0.0695      0.0627
        40         0.0796      0.0041     -0.3814
 Ground to excited state transition velocity quadrupole moments (Au):
       state          XX          YY          ZZ          XY          XZ          YZ
         1        -0.0504      0.0206      0.0060     -0.0002      0.0050     -0.0725
         2        -0.0034     -0.0000      0.0005     -0.0068     -0.0076      0.0027
         3        -0.0148      0.0058     -0.0016      0.7403     -0.0220      0.0002
         4        -0.0236      0.0075     -0.0008      0.2969     -0.2046     -0.0116
         5        -0.0013      0.0010     -0.0002      0.4201      0.1914      0.0149
         6        -0.0842      0.0588     -0.0088      0.0010      0.0129      0.0298
         7        -0.1808      0.0849      0.0057     -0.0089     -0.0117     -0.0501
         8         0.1293     -0.0166      0.0095      0.0100      0.0288      0.0134
         9        -0.0361      0.0443      0.0214      0.0057     -0.0191     -0.0901
        10         0.3133     -0.1048      0.0102      0.0075      0.0138      0.0558
        11         0.1191     -0.0246     -0.0008     -0.0128     -0.0326     -0.0024
        12         0.0263     -0.0336     -0.0073     -0.1314      0.1067     -0.0077
        13         0.9877     -0.3958     -0.0302      0.0152      0.0076      0.0091
        14        -0.3441      0.1128     -0.0012      0.0044     -0.0094     -0.1801
        15         0.0342     -0.0202     -0.0070      0.0207     -0.1704      0.0025
        16        -0.1490      0.0677     -0.0687     -0.0033     -0.0062     -0.0353
        17         0.1489     -0.0900      0.0370     -0.0567     -0.0126      0.0004
        18         2.2377      0.0274     -0.0036      0.0035     -0.0036      0.0227
        19         5.3570     -0.8999      0.0245      0.0401     -0.0239      0.0075
        20         0.1270     -0.0180     -0.0081     -0.4888     -0.0335      0.0135
        21         0.6958     -0.1035      0.0153     -0.0435      0.0567     -0.0535
        22         0.3446     -0.0389     -0.0013     -0.1282     -0.1537     -0.0109
        23         0.6256     -0.0829     -0.0111      0.0872     -0.0045     -0.0595
        24         0.0381      0.0058      0.0031      0.1581      0.3694      0.2967
        25        -0.2509      0.0400      0.0009      0.4667     -0.4056      0.0651
        26         0.1071      0.0054     -0.0050     -0.3771     -0.5014      0.1788
        27         0.1435     -0.0099     -0.0417     -0.5981     -0.0020      0.0066
        28        -0.2238      0.0582      0.0009      1.6557      0.0197      0.0221
        29        -0.2085      0.0425      0.0084     -1.9851     -0.0580      0.0203
        30         0.0004     -0.0096     -0.0169     -0.1902     -0.1684      0.0199
        31         0.0706     -0.0485     -0.0280     -0.0674      0.2526      0.0725
        32        -0.2030     -0.0575      0.1130     -0.0437     -0.0166      0.0313
        33        -0.0027     -0.0332     -0.0164      0.0430     -0.2741      0.0632
        34         0.0784     -0.0159      0.0041     -0.2238     -0.2053      0.0057
        35        -0.0037     -0.0028     -0.0103      0.9803     -0.0974      0.0007
        36         0.0138     -0.0072      0.0039     -0.8278     -0.0400      0.0003
        37        -0.1427      0.0183     -0.0006     -0.2579     -0.0734     -0.0038
[...]
    10  C   -0.082788   0.012991   0.530941   4.836984   0.000017   0.000001
    11  C   -0.000396   0.000005   0.000001   0.000017   4.875042   0.502738
    12  C    0.000005   0.000000  -0.000000   0.000001   0.502738   4.770510
    13  C    0.000001  -0.000000   0.000000   0.000003   0.008374   0.423841
    14  C    0.000017   0.000000   0.000005  -0.000369  -0.083121   0.013854
    15  H   -0.000015  -0.000001   0.000000  -0.000001   0.394749  -0.058177
    16  H   -0.000000  -0.000000   0.000000   0.000000  -0.037980   0.389800
    17  H    0.000000   0.000000   0.000000  -0.000000   0.009514  -0.054782
    18  H   -0.000001   0.000000  -0.000001  -0.000006  -0.000332   0.010082
    19  H   -0.019415   0.000957  -0.000051  -0.000183  -0.019234   0.000885
    20  H   -0.000319   0.010383  -0.053669   0.385557  -0.000001   0.000000
    21  H    0.009511  -0.055657   0.390856  -0.035699   0.000000   0.000000
    22  H    0.395216  -0.058032   0.009941  -0.000877  -0.000012  -0.000001
    23  H   -0.037863   0.389854  -0.051537   0.008819  -0.000000  -0.000000
    24  H   -0.000147  -0.000017   0.000293  -0.016195  -0.000115  -0.000027
              13         14         15         16         17         18
     1  C   -0.000736   0.016631  -0.024441  -0.000428   0.000029  -0.000311
     2  C   -0.069872  -0.019386  -0.035833   0.008348   0.000164   0.013536
     3  C    0.000096   0.000193   0.001647   0.000009   0.000000  -0.000047
     4  C    0.016047   0.447253   0.012628   0.000795   0.009759  -0.034336
     5  C    0.009770  -0.108779  -0.000112   0.000042  -0.000310  -0.023424
     6  C   -0.000627   0.005568  -0.000060  -0.000001   0.000006   0.001310
     7  C    0.000001   0.000017  -0.000015  -0.000000   0.000000  -0.000001
     8  C   -0.000000   0.000000  -0.000001  -0.000000   0.000000   0.000000
     9  C    0.000000   0.000005   0.000000   0.000000   0.000000  -0.000001
    10  C    0.000003  -0.000369  -0.000001   0.000000  -0.000000  -0.000006
    11  C    0.008374  -0.083121   0.394749  -0.037980   0.009514  -0.000332
    12  C    0.423841   0.013854  -0.058177   0.389800  -0.054782   0.010082
    13  C    4.759344   0.523919   0.009963  -0.051355   0.391329  -0.056813
    14  C    0.523919   4.837204  -0.000897   0.008847  -0.037047   0.385094
    15  H    0.009963  -0.000897   0.752621  -0.014926  -0.000277   0.000057
    16  H   -0.051355   0.008847  -0.014926   0.733883  -0.013725  -0.000288
    17  H    0.391329  -0.037047  -0.000277  -0.013725   0.735788  -0.016747
    18  H   -0.056813   0.385094   0.000057  -0.000288  -0.016747   0.760680
    19  H   -0.000042  -0.000214   0.003108  -0.000018  -0.000001   0.000012
    20  H   -0.000001  -0.000015   0.000000   0.000000  -0.000000   0.000018
    21  H    0.000000  -0.000000   0.000000   0.000000  -0.000000  -0.000000
    22  H    0.000000  -0.000001   0.000026  -0.000000   0.000000   0.000000
    23  H    0.000000   0.000000  -0.000000  -0.000000   0.000000   0.000000
    24  H    0.000420  -0.016976   0.000008  -0.000000  -0.000011   0.003831
              19         20         21         22         23         24
     1  C    0.388114  -0.000302   0.000027  -0.024101  -0.000417  -0.000734
     2  C   -0.042753  -0.000023   0.000000   0.001786   0.000008   0.010370
     3  C   -0.044010   0.013254   0.000088  -0.036373   0.008476   0.010363
     4  C    0.011519   0.001029   0.000006  -0.000069  -0.000001  -0.033628
     5  C   -0.000623  -0.022592  -0.000298  -0.000118   0.000040   0.381251
     6  C    0.011287  -0.037886   0.010006   0.012206   0.000737  -0.032981
     7  C   -0.019415  -0.000319   0.009511   0.395216  -0.037863  -0.000147
     8  C    0.000957   0.010383  -0.055657  -0.058032   0.389854  -0.000017
     9  C   -0.000051  -0.053669   0.390856   0.009941  -0.051537   0.000293
    10  C   -0.000183   0.385557  -0.035699  -0.000877   0.008819  -0.016195
    11  C   -0.019234  -0.000001   0.000000  -0.000012  -0.000000  -0.000115
    12  C    0.000885   0.000000   0.000000  -0.000001  -0.000000  -0.000027
    13  C   -0.000042  -0.000001   0.000000   0.000000   0.000000   0.000420
    14  C   -0.000214  -0.000015  -0.000000  -0.000001   0.000000  -0.016976
    15  H    0.003108   0.000000   0.000000   0.000026  -0.000000   0.000008
    16  H   -0.000018   0.000000   0.000000  -0.000000  -0.000000  -0.000000
    17  H   -0.000001  -0.000000  -0.000000   0.000000   0.000000  -0.000011
    18  H    0.000012   0.000018  -0.000000   0.000000   0.000000   0.003831
    19  H    0.751402   0.000012  -0.000001   0.002762  -0.000019   0.000043
    20  H    0.000012   0.761339  -0.017467   0.000059  -0.000298   0.004094
    21  H   -0.000001  -0.017467   0.736164  -0.000280  -0.013499  -0.000010
    22  H    0.002762   0.000059  -0.000280   0.752173  -0.015017   0.000008
    23  H   -0.000019  -0.000298  -0.013499  -0.015017   0.733704  -0.000000
    24  H    0.000043   0.004094  -0.000010   0.000008  -0.000000   0.729141
 Mulliken charges:
               1
     1  C   -0.004453
     2  C    0.034607
     3  C    0.033178
     4  C    0.017573
     5  C   -0.007323
     6  C    0.018874
     7  C    0.030671
     8  C    0.031078
     9  C    0.034565
    10  C    0.026621
    11  C    0.028826
    12  C    0.032010
    13  C    0.036340
    14  C    0.028219
    15  H   -0.040069
    16  H   -0.023002
    17  H   -0.023688
    18  H   -0.042312
    19  H   -0.043538
    20  H   -0.043171
    21  H   -0.023747
    22  H   -0.039296
    23  H   -0.022987
    24  H   -0.038977
 Sum of Mulliken charges =  -0.00000
 Mulliken charges with hydrogens summed into heavy atoms:
               1
     1  C   -0.047991
     2  C    0.034607
     3  C    0.033178
     4  C    0.017573
     5  C   -0.046301
     6  C    0.018874
     7  C   -0.008625
     8  C    0.008091
     9  C    0.010818
    10  C   -0.016550
    11  C   -0.011243
    12  C    0.009008
    13  C    0.012652
    14  C   -0.014092
 Electronic spatial extent (au):  <R**2>=           2830.8776
 Charge=             -0.0000 electrons
 Dipole moment (field-independent basis, Debye):
    X=             -0.0069    Y=             -0.0832    Z=              0.3821  Tot=              0.3911
 Quadrupole moment (field-independent basis, Debye-Ang):
   XX=            -71.7262   YY=            -71.6148   ZZ=            -86.9620
   XY=             -0.0682   XZ=              0.0701   YZ=              0.2421
 Traceless Quadrupole moment (field-independent basis, Debye-Ang):
   XX=              5.0414   YY=              5.1529   ZZ=            -10.1943
   XY=             -0.0682   XZ=              0.0701   YZ=              0.2421
 Octapole moment (field-independent basis, Debye-Ang**2):
  XXX=              0.0872  YYY=             -0.2794  ZZZ=              0.5213  XYY=             -0.0746
  XXY=             -1.0210  XXZ=             13.0775  XZZ=              0.0165  YZZ=              0.0254
  YYZ=              0.3830  XYZ=              1.2112
 Hexadecapole moment (field-independent basis, Debye-Ang**3):
 XXXX=          -2813.9684 YYYY=           -705.5365 ZZZZ=           -116.9131 XXXY=             -1.4295
 XXXZ=             -0.2311 YYYX=             -0.3789 YYYZ=              1.0425 ZZZX=              0.1645
 ZZZY=              0.4669 XXYY=           -599.2200 XXZZ=           -583.7690 YYZZ=           -159.8813
 XXYZ=              3.3642 YYXZ=              0.7868 ZZXY=              0.5002
 N-N= 7.664648408551D+02 E-N=-2.782669621200D+03  KE= 5.356378249619D+02
 Leave Link  601 at Fri Aug 30 08:21:44 2024, MaxMem=   104857600 cpu:               0.0 elap:               0.0
 (Enter /curc/sw/install/gaussian/g16_c.02/g16/l9999.exe)
 Electronic transition elements 
                 1             2             3             4             5 
      1  -0.539101D+03 -0.539082D+03 -0.539040D+03 -0.539030D+03 -0.539029D+03
      2  -0.212809D+00  0.185900D+00  0.279684D+00  0.246897D+01 -0.216021D+01
      3  -0.314318D+00 -0.111993D+00 -0.194394D+00 -0.149708D+01  0.129318D+01
      4   0.916560D+00  0.891424D-02  0.488679D-02  0.111328D+00 -0.109224D+00
      5   0.310465D-01 -0.213753D-01 -0.508233D-01 -0.477086D+00  0.419791D+00
      6   0.453894D-01  0.128809D-01  0.353880D-01  0.289912D+00 -0.250328D+00
      7  -0.131317D+00 -0.916966D-03 -0.819022D-03 -0.209467D-01  0.215064D-01
      8  -0.171740D+00 -0.205790D-01  0.547684D+00  0.468923D+00  0.428204D+00
      9   0.100316D+00 -0.490836D-01  0.953106D+00  0.765232D+00  0.756853D+00
     10   0.247616D-01 -0.383872D-01  0.488298D+00  0.774351D-01  0.709932D+00
     11  -0.469752D-01 -0.105698D-01  0.289414D+00 -0.515497D-01  0.331356D+00
     12  -0.497351D-01  0.938818D-02 -0.243655D+00  0.513847D-01 -0.294530D+00
     13   0.729597D-01 -0.171771D-02 -0.563628D-01 -0.167824D-01 -0.373677D-01
     14   0.294011D-02 -0.177043D-02  0.113082D+00 -0.359933D-01  0.155233D+00
     15   0.189324D-01  0.143728D-02 -0.576470D+00 -0.303086D+00 -0.254113D+00
     16   0.374884D-01 -0.320927D-02  0.361125D+00  0.185714D+00  0.160355D+00
                 6             7             8             9            10 
      1  -0.539013D+03 -0.539009D+03 -0.539002D+03 -0.538993D+03 -0.538990D+03
      2  -0.225552D-01 -0.870202D-02 -0.217483D+00  0.365942D-01 -0.527626D-01
      3  -0.416441D-04  0.574274D-02 -0.362423D+00  0.121943D+00 -0.104769D+00
      4   0.380235D-01  0.971800D-01  0.862637D+00 -0.178679D+00  0.651554D-01
      5   0.531658D-02  0.201723D-02  0.510620D-01 -0.966692D-02  0.129614D-01
      6   0.142753D-02 -0.204241D-02  0.844401D-01 -0.294990D-01  0.253565D-01
      7  -0.824397D-02 -0.231575D-01 -0.200986D+00  0.456271D-01 -0.170743D-01
      8  -0.414308D-01  0.126736D+00 -0.649670D-01  0.138006D+00 -0.242795D-01
      9   0.162541D-01 -0.888119D-01  0.178799D-01 -0.772281D-01  0.128724D-01
     10   0.170669D-01 -0.306407D-01  0.261235D-01 -0.180606D-01  0.218724D-01
     11  -0.423532D-01 -0.149777D+00  0.125058D+00 -0.521979D-01  0.250831D+00
     12  -0.165172D-01 -0.491595D-01  0.187748D-01 -0.254753D-01  0.941543D-01
     13   0.246448D-01  0.108783D+00 -0.216370D-01  0.107175D+00 -0.126310D+00
     14   0.552154D-01  0.651077D-01 -0.363572D-01 -0.116467D-01 -0.117047D+00
     15  -0.233592D-01 -0.725514D-02  0.952422D-02  0.889454D-02  0.198879D-01
     16  -0.378254D-01  0.676411D-02 -0.285493D-02  0.523262D-01 -0.285122D-02
                11            12            13            14            15 
      1  -0.538983D+03 -0.538975D+03 -0.538973D+03 -0.538972D+03 -0.538970D+03
      2   0.237306D+00 -0.211784D+00 -0.269492D-01  0.188353D-01 -0.837852D-01
      3  -0.153314D+00  0.121305D+00 -0.828412D-01  0.980954D-02  0.473614D-01
      4   0.188792D-02  0.759622D-02  0.658321D-02  0.103819D-01 -0.428424D-02
      5  -0.568244D-01  0.540521D-01  0.558077D-02 -0.393688D-02  0.213713D-01
      6   0.366613D-01 -0.314323D-01  0.192725D-01 -0.743378D-03 -0.122664D-01
      7  -0.447384D-03 -0.205590D-02 -0.260387D-02 -0.183336D-02  0.136023D-02
      8   0.936613D-01 -0.102301D+00 -0.169467D-01 -0.189282D+00  0.119670D+00
      9   0.147229D+00 -0.144867D+00 -0.823741D-02  0.132553D+00  0.142370D+00
     10  -0.538907D-02  0.187538D-01  0.308439D-01 -0.194143D-01 -0.331064D+00
     11   0.538394D-01  0.405048D-01  0.704189D+00 -0.290816D+00 -0.100885D+00
     12   0.584001D-01 -0.466093D-01  0.194922D+00 -0.169326D+00  0.135584D+00
     13  -0.185631D-01 -0.854770D-02 -0.337473D+00  0.227663D+00 -0.277345D-01
     14  -0.721406D-01  0.620370D-02 -0.472237D+00  0.948362D-01 -0.895440D-01
     15   0.824381D-02  0.150242D+00  0.110386D+00  0.972010D-02 -0.761053D-01
     16   0.556038D-02 -0.713979D-01  0.887034D-01  0.804028D-01  0.424846D-01
                16            17            18            19            20 
      1  -0.538969D+03 -0.538967D+03 -0.538963D+03 -0.538952D+03 -0.538944D+03
      2   0.311128D-01  0.781349D-01 -0.445568D-01 -0.106966D+00 -0.109101D+00
      3  -0.582404D-03 -0.602736D-01 -0.963273D-01 -0.234069D+00  0.140604D+00
      4   0.665966D-01 -0.187775D-01 -0.137102D+00 -0.381067D+00 -0.134737D+00
      5  -0.911468D-02 -0.200169D-01  0.118758D-01  0.270698D-01  0.301772D-01
      6  -0.137189D-02  0.157446D-01  0.253293D-01  0.595760D-01 -0.385658D-01
      7  -0.207789D-01  0.587812D-02  0.362766D-01  0.100239D+00  0.373542D-01
      8  -0.157646D-01  0.492682D-01  0.151799D-01 -0.126813D-01  0.419375D+00
      9   0.631899D-01  0.684633D-01  0.102419D-01  0.186284D-01  0.709298D+00
     10   0.143094D-01  0.443457D-01 -0.134473D-02 -0.280294D-01  0.351112D+00
     11  -0.133024D+00  0.766661D-01  0.163790D+01  0.385821D+01 -0.142565D+00
     12  -0.873271D-01  0.828467D-01  0.614833D+00  0.136013D+01  0.231423D+00
     13   0.703352D-01 -0.636050D-01  0.882209D-02 -0.736819D+00  0.120404D-01
     14   0.314074D-01 -0.744354D-01 -0.982065D+00 -0.243865D+01 -0.147143D+00
     15  -0.230248D-01  0.716687D-01  0.671333D-01  0.371353D+00  0.364248D+00
     16  -0.199100D-01  0.106640D-01 -0.718556D-01  0.178288D+00 -0.238970D+00
                21            22            23            24            25 
      1  -0.538942D+03 -0.538939D+03 -0.538938D+03 -0.538938D+03 -0.538937D+03
      2  -0.393675D+00  0.632108D-01 -0.775131D-01  0.516220D-01  0.102240D+00
      3  -0.524008D+00 -0.866175D-01 -0.998844D-01 -0.818699D-01 -0.634162D-01
      4   0.127693D+01  0.271363D-01  0.213321D+00  0.220509D-01  0.712730D-02
      5   0.110356D+00 -0.201566D-01  0.211140D-01 -0.160501D-01 -0.303184D-01
      6   0.146722D+00  0.253006D-01  0.287050D-01  0.277222D-01  0.202307D-01
      7  -0.356526D+00 -0.819277D-02 -0.607495D-01 -0.662141D-02 -0.229613D-02
      8   0.110633D-01 -0.185084D+00 -0.483090D-01  0.308475D+00  0.503590D+00
      9   0.649638D-01 -0.312034D+00  0.221065D+00 -0.271307D+00  0.620066D+00
     10   0.879605D-01 -0.270249D+00  0.569868D-01  0.509978D+00 -0.128554D+00
     11   0.517709D+00  0.717708D-01  0.469300D+00  0.451719D+00 -0.281024D+00
     12   0.125086D+00  0.251358D+00  0.935094D-01 -0.186534D+00  0.140503D+00
     13  -0.352285D-01 -0.186955D-01 -0.313013D-01 -0.218248D+00 -0.694249D-01
     14  -0.311898D+00 -0.247161D+00 -0.296865D+00  0.274636D+00  0.337226D-01
     15   0.124010D+00  0.652556D-01 -0.947438D-02 -0.728326D-01 -0.547952D+00
     16   0.199209D-01 -0.246715D-01  0.845075D-01 -0.162189D+00  0.256237D+00
                26            27            28            29            30 
      1  -0.538937D+03 -0.538930D+03 -0.538928D+03 -0.538928D+03 -0.538922D+03
      2  -0.108044D+00  0.253820D-01  0.554878D-01  0.147535D+00 -0.654315D-01
      3   0.161760D-01  0.289079D-01  0.133334D+00  0.105137D+00  0.927486D-01
      4   0.631604D-01  0.176463D+00  0.611087D-01  0.411663D-01  0.194335D-01
      5   0.370144D-01 -0.819992D-02 -0.150771D-01 -0.451106D-01  0.178484D-01
      6  -0.655823D-02 -0.857106D-02 -0.390448D-01 -0.313242D-01 -0.318582D-01
      7  -0.194163D-01 -0.517414D-01 -0.174150D-01 -0.126142D-01 -0.800413D-02
      8   0.180559D+00 -0.203262D+00  0.555950D+00 -0.565595D+00  0.537288D-01
      9  -0.253309D+00 -0.351651D+00  0.841494D+00 -0.112380D+01 -0.102460D+00
     10  -0.781682D+00 -0.172627D+00  0.488307D+00 -0.607295D+00 -0.353371D+00
     11  -0.433329D+00 -0.160936D+00  0.570434D+00 -0.103894D+01 -0.211739D+00
     12   0.660439D+00  0.224655D+00 -0.633006D+00  0.702268D+00  0.202408D+00
     13  -0.119621D+00  0.281940D-01 -0.102191D+00  0.179019D+00 -0.167467D-01
     14  -0.264036D+00 -0.171655D+00  0.380283D+00 -0.230742D+00 -0.103415D+00
     15   0.463275D-01  0.454297D+00 -0.128680D+01  0.147350D+01  0.749156D-01
     16  -0.200809D+00 -0.307585D+00  0.774816D+00 -0.969726D+00 -0.758864D-01
                31            32            33            34            35 
      1  -0.538921D+03 -0.538921D+03 -0.538920D+03 -0.538915D+03 -0.538915D+03
      2  -0.116791D+00 -0.892217D-01  0.336775D+00 -0.596195D-01 -0.118881D-01
      3   0.166691D+00 -0.108035D+00 -0.159352D+00  0.252325D-01  0.272309D-01
      4   0.231038D-01 -0.141430D+00  0.254389D-01 -0.906619D-02  0.680274D-02
      5   0.299953D-01  0.403492D-01 -0.103025D+00  0.168308D-01  0.353488D-02
      6  -0.562689D-01  0.547022D-01  0.432674D-01 -0.650026D-02 -0.137062D-01
      7  -0.106428D-01  0.554631D-01 -0.101839D-01  0.306677D-02 -0.427214D-02
      8   0.204729D+00  0.140879D+00  0.203409D+00 -0.526051D-02  0.347477D+00
      9  -0.216098D+00 -0.783064D-01 -0.143956D-01 -0.161701D-01  0.580927D+00
     10   0.156566D+00 -0.408567D-01 -0.290417D-01 -0.393617D+00  0.120104D+00
     11   0.226799D+00 -0.152885D+00 -0.187847D+00 -0.197214D+00  0.339420D+00
     12  -0.148002D+00  0.543220D-01  0.227211D+00  0.269935D+00 -0.268792D+00
     13  -0.847253D-01 -0.488891D-01 -0.917310D-01 -0.602190D-02 -0.875187D-01
     14   0.796531D-01  0.122328D+00 -0.982200D-01 -0.157265D+00  0.109192D+00
     15   0.132585D+00  0.443156D-01 -0.151174D+00  0.994443D-01 -0.787749D+00
     16  -0.116030D+00  0.230775D-01  0.389203D-01 -0.703340D-01  0.490427D+00
                36            37            38            39            40 
      1  -0.538914D+03 -0.538909D+03 -0.538905D+03 -0.538905D+03 -0.538903D+03
      2   0.719545D-01  0.538901D-01 -0.921433D-01 -0.161829D+00  0.296553D-01
      3  -0.433831D-01 -0.242877D-01 -0.209931D+00  0.590589D-01 -0.272067D-01
      4   0.750945D-02  0.152981D-01 -0.973433D-01  0.429227D-02  0.411028D-01
      5  -0.214902D-01 -0.156913D-01  0.463802D-01  0.567387D-01 -0.108087D-01
      6   0.151718D-01  0.739558D-02  0.965436D-01 -0.178462D-01  0.105722D-01
      7  -0.162446D-02 -0.445532D-02  0.463953D-01  0.209105D-03 -0.125215D-01
      8  -0.226975D+00 -0.371563D-01  0.663921D-02  0.663862D-01 -0.104635D+00
      9  -0.400970D+00 -0.572585D-01  0.371062D-02 -0.748732D-02 -0.339904D+00
     10  -0.141539D+00 -0.548154D-01 -0.153951D-01  0.920857D-01 -0.159044D+00
     11  -0.375366D+00 -0.271631D+00 -0.413799D-01  0.907401D-01 -0.204482D+00
     12   0.325849D+00  0.110929D+00  0.109424D-01 -0.575517D-01  0.229397D+00
     13   0.600416D-01  0.356377D-01  0.491613D-01 -0.358496D-02  0.113805D-01
     14  -0.152492D+00 -0.937779D-02  0.258272D-01  0.313820D-01 -0.107549D+00
     15   0.620595D+00  0.161016D+00 -0.134208D-01  0.387745D-01  0.354741D+00
     16  -0.391405D+00 -0.112190D+00  0.560730D-02 -0.207707D-01 -0.241236D+00
 Unable to Open any file for archive entry.
 1\1\GINC-C3CPU-C11-U13-4\SP\RCAM-B3LYP TD-FC\CC-pVDZ\C14H10\SILE6618\3
 0-Aug-2024\0\\#p CAM-B3LYP/cc-pVDZ TD(NStates=40,Root=0)\\TD-DFT excit
 ed state calculation: CAM-B3LYP/cc-pVDZ\\0,1\C,0,10.70051,5.44882,23.7
 1103\C,0,9.86535,6.36033,23.06568\C,0,11.92708,5.09157,23.15315\C,0,10
 .20494,6.81277,21.73154\C,0,11.36552,6.33847,21.05453\C,0,12.28918,5.5
 8033,21.83391\C,0,12.86133,4.31545,23.9032\C,0,14.13694,4.09733,23.448
 77\C,0,14.53031,4.64821,22.20398\C,0,13.6257,5.33579,21.43452\C,0,8.71
 898,6.89515,23.72297\C,0,7.97054,7.8934,23.15017\C,0,8.32225,8.3755,21
 .86646\C,0,9.37377,7.81691,21.18403\H,0,8.47903,6.52006,24.71974\H,0,7
 .118,8.32084,23.67852\H,0,7.74314,9.17777,21.40694\H,0,9.62716,8.17517
 ,20.18813\H,0,10.4301,5.07732,24.70245\H,0,13.95536,5.76717,20.4966\H,
 0,15.55371,4.52044,21.84723\H,0,12.54422,3.93771,24.87737\H,0,14.8505,
 3.52914,24.04618\H,0,11.6372,6.71833,20.07691\\Version=ES64L-G16RevC.0
 2\State=1-A\HF=-539.2279677\RMSD=3.997e-09\PG=C01 [X(C14H10)]\\@
 The archive entry for this job was punched.


 A HARD FALL SHOULD MEAN A HIGH BOUNCE 
 IF ONE IS MADE OF THE RIGHT MATERIAL.

                -- THE CHEMIST ANALYST, MARCH 1950
 Job cpu time:       0 days  0 hours 21 minutes 36.6 seconds.
 Elapsed time:       0 days  0 hours 21 minutes 42.7 seconds.
 File lengths (MBytes):  RWF=   1162 Int=      0 D2E=      0 Chk=     96 Scr=      1
 Normal termination of Gaussian 16 at Fri Aug 30 08:21:44 2024.
