 Entering Gaussian System, Link 0=g16
 Initial command:
 /curc/sw/install/gaussian/g16_c.02/g16/l1.exe "/scratch/local/7273843/Gau-226341.inp" -scrdir="/scratch/local/7273843/"
 Entering Link 1 = /curc/sw/install/gaussian/g16_c.02/g16/l1.exe PID=    226342.
  
 Copyright (c) 1988-2021, Gaussian, Inc.  All Rights Reserved.
  
 This is part of the Gaussian(R) 16 program.  It is based on
 the Gaussian(R) 09 system (copyright 2009, Gaussian, Inc.),
 the Gaussian(R) 03 system (copyright 2003, Gaussian, Inc.),
 the Gaussian(R) 98 system (copyright 1998, Gaussian, Inc.),
 the Gaussian(R) 94 system (copyright 1995, Gaussian, Inc.),
 the Gaussian 92(TM) system (copyright 1992, Gaussian, Inc.),
 the Gaussian 90(TM) system (copyright 1990, Gaussian, Inc.),
 the Gaussian 88(TM) system (copyright 1988, Gaussian, Inc.),
 the Gaussian 86(TM) system (copyright 1986, Carnegie Mellon
 University), and the Gaussian 82(TM) system (copyright 1983,
 Carnegie Mellon University). Gaussian is a federally registered
 trademark of Gaussian, Inc.
  
 This software contains proprietary and confidential information,
 including trade secrets, belonging to Gaussian, Inc.
  
 This software is provided under written license and may be
 used, copied, transmitted, or stored only in accord with that
 written license.
  
 The following legend is applicable only to US Government
 contracts under FAR:
  
                    RESTRICTED RIGHTS LEGEND
  
 Use, reproduction and disclosure by the US Government is
 subject to restrictions as set forth in subparagraphs (a)
 and (c) of the Commercial Computer Software - Restricted
 Rights clause in FAR 52.227-19.
  
 Gaussian, Inc.
 340 Quinnipiac St., Bldg. 40, Wallingford CT 06492
  
  
 ---------------------------------------------------------------
 Warning -- This program may not be used in any manner that
 competes with the business of Gaussian, Inc. or will provide
 assistance to any competitor of Gaussian, Inc.  The licensee
 of this program is prohibited from giving any competitor of
 Gaussian, Inc. access to this program.  By using this program,
 the user acknowledges that Gaussian, Inc. is engaged in the
 business of creating and licensing software in the field of
 computational chemistry and represents and warrants to the
 licensee that it is not a competitor of Gaussian, Inc. and that
 it will not use this program in any manner prohibited above.
 ---------------------------------------------------------------
  

 Cite this work as:
 Gaussian 16, Revision C.02,
 M. J. Frisch, G. W. Trucks, H. B. Schlegel, G. E. Scuseria, 
 M. A. Robb, J. R. Cheeseman, G. Scalmani, V. Barone, 
 G. A. Petersson, H. Nakatsuji, X. Li, M. Caricato, A. V. Marenich, 
 J. Bloino, B. G. Janesko, R. Gomperts, B. Mennucci, H. P. Hratchian, 
 J. V. Ortiz, A. F. Izmaylov, J. L. Sonnenberg, D. Williams-Young, 
 F. Ding, F. Lipparini, F. Egidi, J. Goings, B. Peng, A. Petrone, 
 T. Henderson, D. Ranasinghe, V. G. Zakrzewski, J. Gao, N. Rega, 
 G. Zheng, W. Liang, M. Hada, M. Ehara, K. Toyota, R. Fukuda, 
 J. Hasegawa, M. Ishida, T. Nakajima, Y. Honda, O. Kitao, H. Nakai, 
 T. Vreven, K. Throssell, J. A. Montgomery, Jr., J. E. Peralta, 
 F. Ogliaro, M. J. Bearpark, J. J. Heyd, E. N. Brothers, K. N. Kudin, 
 V. N. Staroverov, T. A. Keith, R. Kobayashi, J. Normand, 
 K. Raghavachari, A. P. Rendell, J. C. Burant, S. S. Iyengar, 
 J. Tomasi, M. Cossi, J. M. Millam, M. Klene, C. Adamo, R. Cammi, 
 J. W. Ochterski, R. L. Martin, K. Morokuma, O. Farkas, 
 J. B. Foresman, and D. J. Fox, Gaussian, Inc., Wallingford CT, 2019.
 
 ******************************************
 Gaussian 16:  ES64L-G16RevC.02  7-Dec-2021
                15-Jul-2024 
 ******************************************
 %NProcShared=32
 Will use up to   32 processors via shared memory.
 %OldChk=tddft
 Copying data from "tddft.chk" to current chk file "/scratch/local/7273843/Gau-226342.chk"
 IOpt=  2 FromEx=T IUOpen= 4 IOptOp= 5 NList=   0 IFRang= 0 IUIn= 4 IUOut= 2.
 ----------------------------------------------------------------------
 #p CAM-B3LYP/aug-cc-pVDZ TD(NStates=40,Root=0,Read) Geom=AllCheck Gues
 s=Read Freq(HPModes,SaveNM) NoSymm
 ----------------------------------------------------------------------
 1/10=4,29=7,30=1,38=1/1,3;
 2/12=2,15=1,40=1/2;
 3/5=16,7=10,11=9,14=-4,25=1,30=1,71=2,74=-40,116=-2,140=1/1,2,3,8;
 4/5=1/1;
 5/5=2,38=6,98=1/2;
 8/6=1,10=1,108=40/1;
 9/15=3,41=40,42=1,49=3,70=2/14;
 10/5=2004,20=4,31=1/2;
 11/6=1,8=1,12=-1,16=1,31=1,42=3/1,2,10;
 10/6=3,21=1,31=1/2,14;
 6/7=2,8=2,9=2,10=2/1;
 7/8=11,10=1,12=6,13=8,25=1,30=1,44=2,92=1/1,2,3,16;
 1/10=4,30=1/3;
 99//99;
 Leave Link    1 at Mon Jul 15 13:44:49 2024, MaxMem=   104857600 cpu:               0.2 elap:             104.8
 (Enter /curc/sw/install/gaussian/g16_c.02/g16/l101.exe)
 Structure from the checkpoint file:  "/scratch/local/7273843/Gau-226342.chk"
 -------------------------------------------------------
 TD-DFT excited state calculation: CAM-B3LYP/aug-cc-pVDZ
 -------------------------------------------------------
 Charge =  0 Multiplicity = 1
 Z-Matrix found in chk file.
 C,0,10.7883,5.60957,26.3173
 C,0,9.92421,6.47424,25.63038
 C,0,12.00347,5.21621,25.73742
 C,0,10.27019,6.93771,24.337
 C,0,11.47751,6.53025,23.74973
 C,0,12.3503,5.68044,24.44474
 C,0,12.8861,4.37527,26.43378
 C,0,14.10475,4.00577,25.85792
 C,0,14.44717,4.46338,24.58321
 C,0,13.57402,5.29381,23.8745
 C,0,8.7218,6.89549,26.21979
 C,0,7.87542,7.77343,25.53757
 C,0,8.21584,8.23016,24.26138
 C,0,9.40604,7.81226,23.65865
 H,0,8.44182,6.5545,27.20957
 H,0,6.95432,8.10375,26.00104
 H,0,7.55741,8.91257,23.73981
 H,0,9.65406,8.17971,22.66967
 H,0,10.52354,5.25562,27.30812
 H,0,13.85852,5.64034,22.88784
 H,0,15.39452,4.17703,24.14417
 H,0,12.6387,4.01237,27.42454
 H,0,14.78634,3.36575,26.40315
 H,0,11.74398,6.88702,22.76106
 Recover connectivity data from disk.
 ITRead=  0  0  0  0  0  0  0  0  0  0  0  0  0  0  0  0  0  0  0  0
 ITRead=  0  0  0  0
 MicOpt= -1 -1 -1 -1 -1 -1 -1 -1 -1 -1 -1 -1 -1 -1 -1 -1 -1 -1 -1 -1
 MicOpt= -1 -1 -1 -1
 NAtoms=     24 NQM=       24 NQMF=       0 NMMI=      0 NMMIF=      0
                NMic=       0 NMicF=      0.
                    Isotopes and Nuclear Properties:
 (Nuclear quadrupole moments (NQMom) in fm**2, nuclear magnetic moments (NMagM)
  in nuclear magnetons)

  Atom         1           2           3           4           5           6           7           8           9          10
 IAtWgt=          12          12          12          12          12          12          12          12          12          12
 AtmWgt=  12.0000000  12.0000000  12.0000000  12.0000000  12.0000000  12.0000000  12.0000000  12.0000000  12.0000000  12.0000000
 NucSpn=           0           0           0           0           0           0           0           0           0           0
 AtZEff=   3.6000000   3.6000000   3.6000000   3.6000000   3.6000000   3.6000000   3.6000000   3.6000000   3.6000000   3.6000000
 NQMom=    0.0000000   0.0000000   0.0000000   0.0000000   0.0000000   0.0000000   0.0000000   0.0000000   0.0000000   0.0000000
 NMagM=    0.0000000   0.0000000   0.0000000   0.0000000   0.0000000   0.0000000   0.0000000   0.0000000   0.0000000   0.0000000
 AtZNuc=   6.0000000   6.0000000   6.0000000   6.0000000   6.0000000   6.0000000   6.0000000   6.0000000   6.0000000   6.0000000

  Atom        11          12          13          14          15          16          17          18          19          20
 IAtWgt=          12          12          12          12           1           1           1           1           1           1
 AtmWgt=  12.0000000  12.0000000  12.0000000  12.0000000   1.0078250   1.0078250   1.0078250   1.0078250   1.0078250   1.0078250
 NucSpn=           0           0           0           0           1           1           1           1           1           1
 AtZEff=   3.6000000   3.6000000   3.6000000   3.6000000   1.0000000   1.0000000   1.0000000   1.0000000   1.0000000   1.0000000
 NQMom=    0.0000000   0.0000000   0.0000000   0.0000000   0.0000000   0.0000000   0.0000000   0.0000000   0.0000000   0.0000000
 NMagM=    0.0000000   0.0000000   0.0000000   0.0000000   2.7928460   2.7928460   2.7928460   2.7928460   2.7928460   2.7928460
 AtZNuc=   6.0000000   6.0000000   6.0000000   6.0000000   1.0000000   1.0000000   1.0000000   1.0000000   1.0000000   1.0000000

  Atom        21          22          23          24
 IAtWgt=           1           1           1           1
 AtmWgt=   1.0078250   1.0078250   1.0078250   1.0078250
 NucSpn=           1           1           1           1
 AtZEff=   1.0000000   1.0000000   1.0000000   1.0000000
 NQMom=    0.0000000   0.0000000   0.0000000   0.0000000
 NMagM=    2.7928460   2.7928460   2.7928460   2.7928460
 AtZNuc=   1.0000000   1.0000000   1.0000000   1.0000000
 Leave Link  101 at Mon Jul 15 13:44:53 2024, MaxMem=   104857600 cpu:               0.1 elap:               0.1
 (Enter /curc/sw/install/gaussian/g16_c.02/g16/l103.exe)

 GradGradGradGradGradGradGradGradGradGradGradGradGradGradGradGradGradGrad
 Berny optimization.
 Initialization pass.
 Trust Radius=3.00D-01 FncErr=1.00D-07 GrdErr=1.00D-07 EigMax=2.50D+02 EigMin=1.00D-04
 Number of steps in this run=      2 maximum allowed number of steps=      2.
 GradGradGradGradGradGradGradGradGradGradGradGradGradGradGradGradGradGrad

 Leave Link  103 at Mon Jul 15 13:44:54 2024, MaxMem=   104857600 cpu:               0.1 elap:               0.1
 (Enter /curc/sw/install/gaussian/g16_c.02/g16/l202.exe)
                          Input orientation:                          
 ---------------------------------------------------------------------
 Center     Atomic      Atomic             Coordinates (Angstroms)
 Number     Number       Type             X           Y           Z
 ---------------------------------------------------------------------
      1          6           0       10.788300    5.609570   26.317300
      2          6           0        9.924210    6.474240   25.630380
      3          6           0       12.003470    5.216210   25.737420
      4          6           0       10.270190    6.937710   24.337000
      5          6           0       11.477510    6.530250   23.749730
      6          6           0       12.350300    5.680440   24.444740
      7          6           0       12.886100    4.375270   26.433780
      8          6           0       14.104750    4.005770   25.857920
      9          6           0       14.447170    4.463380   24.583210
     10          6           0       13.574020    5.293810   23.874500
     11          6           0        8.721800    6.895490   26.219790
     12          6           0        7.875420    7.773430   25.537570
     13          6           0        8.215840    8.230160   24.261380
     14          6           0        9.406040    7.812260   23.658650
     15          1           0        8.441820    6.554500   27.209570
     16          1           0        6.954320    8.103750   26.001040
     17          1           0        7.557410    8.912570   23.739810
     18          1           0        9.654060    8.179710   22.669670
     19          1           0       10.523540    5.255620   27.308120
     20          1           0       13.858520    5.640340   22.887840
     21          1           0       15.394520    4.177030   24.144170
     22          1           0       12.638700    4.012370   27.424540
     23          1           0       14.786340    3.365750   26.403150
     24          1           0       11.743980    6.887020   22.761060
 ---------------------------------------------------------------------
                    Distance matrix (angstroms):
                    1          2          3          4          5
     1  C    0.000000
     2  C    1.402200   0.000000
     3  C    1.402723   2.432575   0.000000
     4  C    2.440078   1.416806   2.815848   0.000000
     5  C    2.813375   2.439820   2.440132   1.403044   0.000000
     6  C    2.439538   2.814565   1.416623   2.432939   1.402490
     7  C    2.436766   3.718053   1.403970   4.219665   3.719165
     8  C    3.712418   4.860250   2.427975   5.060960   4.209496
     9  C    4.208105   5.059376   2.805463   4.861079   3.712886
    10  C    3.718496   4.218725   2.437852   3.719087   2.437151
    11  C    2.435882   1.403797   3.717798   2.438071   3.718674
    12  C    3.711487   2.427766   4.860053   2.806193   4.209147
    13  C    4.208545   2.806411   5.060507   2.428271   3.713485
    14  C    3.718993   2.438548   4.219882   1.404191   2.437793
    15  H    2.682351   2.167432   4.079656   3.426579   4.602879
    16  H    4.584796   3.407776   5.822482   3.888917   5.291838
    17  H    5.290739   3.888631   6.117268   3.408208   4.587236
    18  H    4.604055   3.427450   4.869615   2.168449   2.685557
    19  H    1.084944   2.158482   2.158436   3.423619   3.898318
    20  H    4.603085   4.867824   3.426544   4.081586   2.684027
    21  H    5.290740   6.116395   3.888131   5.823856   4.586523
    22  H    2.683469   4.080229   2.167746   4.868301   4.603511
    23  H    4.585458   5.822387   3.407604   6.117474   5.291791
    24  H    3.897697   3.422711   3.423107   2.158289   1.084324
                    6          7          8          9         10
     6  C    0.000000
     7  C    2.438612   0.000000
     8  C    2.807079   1.397588   0.000000
     9  C    2.428430   2.422666   1.396977   0.000000
    10  C    1.404332   2.804793   2.423773   1.397954   0.000000
    11  C    4.218194   4.872237   6.120260   6.432217   5.622260
    12  C    5.059588   6.120261   7.287142   7.419915   6.433379
    13  C    4.860911   6.433570   7.421164   7.288462   6.122248
    14  C    3.719040   5.623617   6.434596   6.122320   4.874550
    15  H    4.866670   5.010241   6.355451   6.880027   6.249121
    16  H    6.116461   7.019604   8.242728   8.450168   7.499224
    17  H    5.823692   7.499300   8.451671   8.244720   7.022333
    18  H    4.082516   6.252069   6.884428   6.359768   5.014591
    19  H    3.422933   2.668553   4.060821   4.842277   4.593107
    20  H    2.168011   3.888405   3.399092   2.146165   1.083753
    21  H    3.408498   3.402026   2.151691   1.082693   2.152705
    22  H    3.427075   1.083747   2.145610   3.398107   3.888405
    23  H    3.889402   2.151971   1.082343   2.152210   3.403117
    24  H    2.158295   4.593713   4.844108   4.062204   2.669665
                   11         12         13         14         15
    11  C    0.000000
    12  C    1.397341   0.000000
    13  C    2.423367   1.397551   0.000000
    14  C    2.805012   2.423767   1.398034   0.000000
    15  H    1.083664   2.145270   3.398636   3.888536   0.000000
    16  H    2.152145   1.082747   2.152633   3.403335   2.464422
    17  H    3.402164   2.151909   1.082242   2.152836   4.287413
    18  H    3.888661   3.399040   2.145824   1.083797   4.972075
    19  H    2.668315   4.060388   4.843139   4.593892   2.455679
    20  H    6.250055   6.882487   6.358743   5.013578   6.989541
    21  H    7.498227   8.450593   8.244698   7.022287   7.961726
    22  H    5.010580   6.355711   6.881644   6.250695   4.911460
    23  H    7.019354   8.242432   8.451103   7.500091   7.146424
    24  H    4.593088   4.843603   4.062359   2.669775   5.550142
                   16         17         18         19         20
    16  H    0.000000
    17  H    2.476099   0.000000
    18  H    4.288635   2.465406   0.000000
    19  H    4.749698   5.907965   5.551713   0.000000
    20  H    7.964194   7.151037   4.916654   5.550583   0.000000
    21  H    9.492316   9.165650   7.151816   5.907655   2.465550
    22  H    7.146882   7.962958   6.991680   2.456242   4.971911
    23  H    9.162471   9.493051   7.965763   4.749952   4.288591
    24  H    5.909209   4.752702   2.459098   4.982639   2.457959
                   21         22         23         24
    21  H    0.000000
    22  H    4.287480   0.000000
    23  H    2.476095   2.464490   0.000000
    24  H    4.752208   5.550872   5.909325   0.000000
 Symmetry turned off by external request.
 Stoichiometry    C14H10
 Framework group  C1[X(C14H10)]
 Deg. of freedom    66
 Full point group                 C1      NOp   1
 Rotational constants (GHZ):           2.1678593           0.4584167           0.3784604
 Leave Link  202 at Mon Jul 15 13:44:56 2024, MaxMem=   104857600 cpu:               0.2 elap:               0.1
 (Enter /curc/sw/install/gaussian/g16_c.02/g16/l301.exe)
 Standard basis: Aug-CC-pVDZ (5D, 7F)
 Ernie: Thresh=  0.10000D-02 Tol=  0.10000D-05 Strict=F.
 Ernie:  28 primitive shells out of 420 were deleted.
   412 basis functions,   712 primitive gaussians,   440 cartesian basis functions
    47 alpha electrons       47 beta electrons
       nuclear repulsion energy       769.9353678581 Hartrees.
 IExCor=20419 DFT=T Ex+Corr=CAM-B3LYP ExCW=0 ScaHFX=  1.000000
 ScaDFX=  1.000000  1.000000  1.000000  0.810000 ScalE2=  1.000000  1.000000
 IRadAn=      5 IRanWt=     -1 IRanGd=            0 ICorTp=0 IEmpDi=  4
 HFx  wShort=  0.000000 wLong=  0.330000 cFull=  0.190000 cShort=  0.000000 cLong=  0.460000
 DFx  wShort=  0.000000 wLong=  0.330000 cFull=  0.190000 cShort=  0.000000 cLong=  0.460000
 NAtoms=   24 NActive=   24 NUniq=   24 SFac= 1.00D+00 NAtFMM=   60 NAOKFM=F Big=F
 Integral buffers will be    131072 words long.
 Raffenetti 1 integral format.
 Two-electron integral symmetry is turned off.
 Leave Link  301 at Mon Jul 15 13:44:57 2024, MaxMem=   104857600 cpu:               0.2 elap:               0.2
 (Enter /curc/sw/install/gaussian/g16_c.02/g16/l302.exe)
 NPDir=0 NMtPBC=     1 NCelOv=     1 NCel=       1 NClECP=     1 NCelD=      1
         NCelK=      1 NCelE2=     1 NClLst=     1 CellRange=     0.0.
 One-electron integrals computed using PRISM.
 PrsmSu:  requested number of processors reduced to:  25 ShMem   1 Linda.
 NBasis=   412 RedAO= T EigKep=  1.31D-06  NBF=   412
 NBsUse=   408 1.00D-06 EigRej=  9.39D-07 NBFU=   408
 Precomputing XC quadrature grid using
 IXCGrd= 4 IRadAn=           5 IRanWt=          -1 IRanGd=           0 AccXCQ= 0.00D+00.
 Generated NRdTot=       0 NPtTot=           0 NUsed=           0 NTot=          32
 NSgBfM=   440   440   440   440   440 MxSgAt=    24 MxSgA2=    24.
 Leave Link  302 at Mon Jul 15 13:45:00 2024, MaxMem=   104857600 cpu:               6.5 elap:               0.8
 (Enter /curc/sw/install/gaussian/g16_c.02/g16/l303.exe)
 DipDrv:  MaxL=1.
 Leave Link  303 at Mon Jul 15 13:45:02 2024, MaxMem=   104857600 cpu:               0.3 elap:               0.1
 (Enter /curc/sw/install/gaussian/g16_c.02/g16/l308.exe)
 Leave Link  308 at Mon Jul 15 13:45:02 2024, MaxMem=   104857600 cpu:               0.5 elap:               0.1
 (Enter /curc/sw/install/gaussian/g16_c.02/g16/l401.exe)
 Initial guess from the checkpoint file:  "/scratch/local/7273843/Gau-226342.chk"
 B after Tr=    21.064896   11.516807   47.331793
         Rot=    0.804386    0.529529   -0.128445    0.236778 Ang=  72.90 deg.
 Guess basis will be translated and rotated to current coordinates.
 JPrj=2 DoOrth=T DoCkMO=T.
 Leave Link  401 at Mon Jul 15 13:45:04 2024, MaxMem=   104857600 cpu:               4.2 elap:               0.5
 (Enter /curc/sw/install/gaussian/g16_c.02/g16/l502.exe)
 Two-electron integral symmetry not used.
 Closed shell SCF:
 Using DIIS extrapolation, IDIIS=  1040.
 NGot=   104857600 LenX=   104452706 LenY=   104258665
 Requested convergence on RMS density matrix=1.00D-08 within 128 cycles.
 Requested convergence on MAX density matrix=1.00D-06.
 Requested convergence on             energy=1.00D-06.
 No special actions if energy rises.
 Fock matrices will be formed incrementally for  20 cycles.

 Cycle   1  Pass 1  IDiag  1:
 FoFJK:  IHMeth= 1 ICntrl=       0 DoSepK=T KAlg= 0 I1Cent=           0 FoldK=F
 IRaf=         1 NMat=       1 IRICut=       1 DoRegI=T DoRafI=F ISym2E= 0 IDoP0=0 IntGTp=1.
 FoFCou: FMM=F IPFlag=           0 FMFlag=      100000 FMFlg1=           0
         NFxFlg=           0 DoJE=T BraDBF=F KetDBF=F FulRan=T
         wScrn=  0.000000 ICntrl=       500 IOpCl=  0 I1Cent=           0 NGrid=           0
         NMat0=    1 NMatS0=      1 NMatT0=    0 NMatD0=    1 NMtDS0=    0 NMtDT0=    0
 Symmetry not used in FoFCou.
 E= -539.254117046772    
 DIIS: error= 2.67D-06 at cycle   1 NSaved=   1.
 NSaved= 1 IEnMin= 1 EnMin= -539.254117046772     IErMin= 1 ErrMin= 2.67D-06
 ErrMax= 2.67D-06  0.00D+00 EMaxC= 1.00D-01 BMatC= 6.38D-10 BMatP= 6.38D-10
 IDIUse=1 WtCom= 1.00D+00 WtEn= 0.00D+00
 Coeff-Com:  0.100D+01
 Coeff:      0.100D+01
 Gap=     0.200 Goal=   None    Shift=    0.000
 RMSDP=1.18D-05 MaxDP=6.92D-04              OVMax= 1.47D-05

 Cycle   2  Pass 1  IDiag  1:
 RMSU=  1.16D-05    CP:  1.00D+00
 E= -539.254117048122     Delta-E=       -0.000000001350 Rises=F Damp=F
 DIIS: error= 5.34D-07 at cycle   2 NSaved=   2.
 NSaved= 2 IEnMin= 2 EnMin= -539.254117048122     IErMin= 2 ErrMin= 5.34D-07
 ErrMax= 5.34D-07  0.00D+00 EMaxC= 1.00D-01 BMatC= 1.18D-11 BMatP= 6.38D-10
 IDIUse=1 WtCom= 1.00D+00 WtEn= 0.00D+00
 Coeff-Com: -0.130D+00 0.113D+01
 Coeff:     -0.130D+00 0.113D+01
 Gap=     0.200 Goal=   None    Shift=    0.000
 RMSDP=8.56D-07 MaxDP=3.71D-05 DE=-1.35D-09 OVMax= 2.93D-06

 Cycle   3  Pass 1  IDiag  1:
 RMSU=  3.10D-07    CP:  1.00D+00  1.06D+00
 E= -539.254117048131     Delta-E=       -0.000000000008 Rises=F Damp=F
 DIIS: error= 6.13D-08 at cycle   3 NSaved=   3.
 NSaved= 3 IEnMin= 3 EnMin= -539.254117048131     IErMin= 3 ErrMin= 6.13D-08
 ErrMax= 6.13D-08  0.00D+00 EMaxC= 1.00D-01 BMatC= 7.93D-13 BMatP= 1.18D-11
 IDIUse=1 WtCom= 1.00D+00 WtEn= 0.00D+00
 Coeff-Com: -0.331D-01 0.261D+00 0.772D+00
 Coeff:     -0.331D-01 0.261D+00 0.772D+00
 Gap=     0.200 Goal=   None    Shift=    0.000
 RMSDP=7.39D-08 MaxDP=2.05D-06 DE=-8.19D-12 OVMax= 3.00D-07

 Cycle   4  Pass 1  IDiag  1:
 RMSU=  5.55D-08    CP:  1.00D+00  1.06D+00  9.83D-01
 E= -539.254117048112     Delta-E=        0.000000000019 Rises=F Damp=F
 DIIS: error= 3.26D-08 at cycle   4 NSaved=   4.
 NSaved= 4 IEnMin= 3 EnMin= -539.254117048131     IErMin= 4 ErrMin= 3.26D-08
 ErrMax= 3.26D-08  0.00D+00 EMaxC= 1.00D-01 BMatC= 2.59D-13 BMatP= 7.93D-13
 IDIUse=1 WtCom= 1.00D+00 WtEn= 0.00D+00
 Coeff-Com:  0.629D-02-0.737D-01 0.346D+00 0.722D+00
 Coeff:      0.629D-02-0.737D-01 0.346D+00 0.722D+00
 Gap=     0.200 Goal=   None    Shift=    0.000
 RMSDP=3.85D-08 MaxDP=1.45D-06 DE= 1.91D-11 OVMax= 1.40D-07

 Cycle   5  Pass 1  IDiag  1:
 RMSU=  2.18D-08    CP:  1.00D+00  1.06D+00  1.01D+00  7.52D-01
 E= -539.254117048188     Delta-E=       -0.000000000077 Rises=F Damp=F
 DIIS: error= 5.03D-09 at cycle   5 NSaved=   5.
 NSaved= 5 IEnMin= 5 EnMin= -539.254117048188     IErMin= 5 ErrMin= 5.03D-09
 ErrMax= 5.03D-09  0.00D+00 EMaxC= 1.00D-01 BMatC= 1.14D-14 BMatP= 2.59D-13
 IDIUse=1 WtCom= 1.00D+00 WtEn= 0.00D+00
 Coeff-Com:  0.391D-02-0.408D-01 0.115D+00 0.286D+00 0.636D+00
 Coeff:      0.391D-02-0.408D-01 0.115D+00 0.286D+00 0.636D+00
 Gap=     0.200 Goal=   None    Shift=    0.000
 RMSDP=4.97D-09 MaxDP=2.90D-07 DE=-7.69D-11 OVMax= 3.49D-08

 SCF Done:  E(RCAM-B3LYP) =  -539.254117048     A.U. after    5 cycles
            NFock=  5  Conv=0.50D-08     -V/T= 2.0054
 KE= 5.363813329819D+02 PE=-2.789997618849D+03 EE= 9.444268009606D+02
 Leave Link  502 at Mon Jul 15 13:45:27 2024, MaxMem=   104857600 cpu:             633.4 elap:              21.5
 (Enter /curc/sw/install/gaussian/g16_c.02/g16/l801.exe)
 DoSCS=F DFT=T ScalE2(SS,OS)=  1.000000  1.000000
 ExpMin= 2.97D-02 ExpMax= 6.67D+03 ExpMxC= 2.28D+02 IAcc=3 IRadAn=         5 AccDes= 0.00D+00
 HarFok:  IExCor=  205 AccDes= 0.00D+00 IRadAn=         5 IDoV=-2 UseB2=F ITyADJ=14
 ICtDFT= 12500011 ScaDFX=  1.000000  1.000000  1.000000  1.000000
 Largest valence mixing into a core orbital is  4.22D-05
 Largest core mixing into a valence orbital is  1.77D-05
 Range of M.O.s used for correlation:    15   408
 NBasis=   412 NAE=    47 NBE=    47 NFC=    14 NFV=     0
 NROrb=    394 NOA=    33 NOB=    33 NVA=   361 NVB=   361

 **** Warning!!: The largest alpha MO coefficient is  0.13748284D+03

 Leave Link  801 at Mon Jul 15 13:45:29 2024, MaxMem=   104857600 cpu:               1.1 elap:               0.1
 (Enter /curc/sw/install/gaussian/g16_c.02/g16/l914.exe)
 RHF ground state
 Two-electron integral symmetry not used.
 MDV=   104857600 DFT=T DoStab=F Mixed=T DoRPA=T DoScal=F NonHer=T
 Making orbital integer symmetry assigments:
 Generating guess from checkpoint file densities.
 Convergence on wavefunction:    0.000001000000000
 Davidson Disk Diagonalization:  ConvIn= 1.00D-06 SkipCon=T Conv= 1.00D-06.
 Max sub-space:  2400 roots to seek:    40 dimension of matrix:        23826
 Iteration     1 Dimension    80 NMult     0 NNew     80
 CISAX will form     4 AO SS matrices at one time.
 NMat=     4 NSing=     4 JSym2X= 0.
 FoFJK:  IHMeth= 1 ICntrl=       0 DoSepK=T KAlg= 0 I1Cent=           0 FoldK=F
 IRaf=         1 NMat=       8 IRICut=       1 DoRegI=T DoRafI=F ISym2E= 0 IDoP0=0 IntGTp=1.
 FoFCou: FMM=F IPFlag=           0 FMFlag=      100000 FMFlg1=           0
         NFxFlg=           0 DoJE=F BraDBF=F KetDBF=F FulRan=T
         wScrn=  0.000000 ICntrl=       500 IOpCl=  0 I1Cent=           0 NGrid=           0
         NMat0=    4 NMatS0=      4 NMatT0=    0 NMatD0=    4 NMtDS0=    0 NMtDT0=    0
 Symmetry not used in FoFCou.
 NMat=     4 NSing=     4 JSym2X= 0.
 NMat=     4 NSing=     4 JSym2X= 0.
 NMat=     4 NSing=     4 JSym2X= 0.
 NMat=     4 NSing=     4 JSym2X= 0.
 NMat=     4 NSing=     4 JSym2X= 0.
 NMat=     4 NSing=     4 JSym2X= 0.
 NMat=     4 NSing=     4 JSym2X= 0.
 NMat=     4 NSing=     4 JSym2X= 0.
 NMat=     4 NSing=     4 JSym2X= 0.
 NMat=     4 NSing=     4 JSym2X= 0.
 NMat=     4 NSing=     4 JSym2X= 0.
 NMat=     4 NSing=     4 JSym2X= 0.
 NMat=     4 NSing=     4 JSym2X= 0.
 NMat=     4 NSing=     4 JSym2X= 0.
 NMat=     4 NSing=     4 JSym2X= 0.
 NMat=     4 NSing=     4 JSym2X= 0.
 NMat=     4 NSing=     4 JSym2X= 0.
 NMat=     4 NSing=     4 JSym2X= 0.
 NMat=     4 NSing=     4 JSym2X= 0.
 New state      1 was old state      7
 New state      2 was old state      8
 New state      3 was old state     39
 New state      4 was old state     28
 New state      5 was old state     11
 New state      6 was old state     35
 New state      7 was old state     20
 New state      8 was old state     10
 New state      9 was old state     34
 New state     10 was old state     15
 New state     11 was old state     29
 New state     12 was old state     40
 New state     13 was old state     16
 New state     14 was old state     13
 New state     15 was old state     38
 New state     16 was old state     17
 New state     17 was old state     30
 New state     18 was old state     32
 New state     20 was old state      3
 New state     21 was old state      9
 New state     22 was old state     18
 New state     23 was old state     37
 New state     24 was old state     36
 New state     25 was old state      4
 New state     26 was old state      1
 New state     27 was old state      5
 New state     28 was old state      6
 New state     29 was old state     33
 New state     30 was old state     27
 New state     31 was old state     14
 New state     32 was old state     12
 New state     33 was old state     24
 New state     34 was old state      2
 New state     35 was old state     22
 New state     36 was old state     23
 New state     37 was old state     31
 New state     38 was old state     25
 No map to state     39
 New state     40 was old state     26
 Excitation Energies [eV] at current iteration:
 Root      1 :    15.413956072892733
 Root      2 :    15.651522443686980
 Root      3 :    15.718895795926466
 Root      4 :    15.907093175740810
 Root      5 :    16.238522199083317
 Root      6 :    16.300312805214201
 Root      7 :    16.348715895259616
 Root      8 :    16.560315342150631
 Root      9 :    16.747638006724252
 Root     10 :    16.979072471689680
 Root     11 :    17.174239103637461
 Root     12 :    17.458559973451745
 Root     13 :    17.528763400946030
 Root     14 :    17.736079935288597
 Root     15 :    18.051840485512916
 Root     16 :    18.179290175774582
 Root     17 :    18.313009532653894
 Root     18 :    18.436981777097408
 Root     19 :    18.716189532876996
 Root     20 :    19.126072435566204
 Root     21 :    19.213669989297468
 Root     22 :    19.830608892801642
 Root     23 :    20.068780370528152
 Root     24 :    20.490860127751649
 Root     25 :    20.705269490331300
 Root     26 :    20.797497584002162
 Root     27 :    21.005029478761621
 Root     28 :    21.222640795416019
 Root     29 :    21.444426047725781
 Root     30 :    21.570696358900047
 Root     31 :    21.963515927389448
 Root     32 :    22.194254534939819
 Root     33 :    22.285064594021474
 Root     34 :    22.703955194296189
 Root     35 :    22.902339217996918
 Root     36 :    23.038131175028084
 Root     37 :    23.104562976711527
 Root     38 :    23.338183530010117
 Root     39 :    23.406774435075139
 Root     40 :    23.775739222369008
 Iteration     2 Dimension   160 NMult    80 NNew     80
 CISAX will form     4 AO SS matrices at one time.
 NMat=     4 NSing=     4 JSym2X= 0.
 NMat=     4 NSing=     4 JSym2X= 0.
 NMat=     4 NSing=     4 JSym2X= 0.
 NMat=     4 NSing=     4 JSym2X= 0.
 NMat=     4 NSing=     4 JSym2X= 0.
 NMat=     4 NSing=     4 JSym2X= 0.
 NMat=     4 NSing=     4 JSym2X= 0.
 NMat=     4 NSing=     4 JSym2X= 0.
 NMat=     4 NSing=     4 JSym2X= 0.
 NMat=     4 NSing=     4 JSym2X= 0.
 NMat=     4 NSing=     4 JSym2X= 0.
 NMat=     4 NSing=     4 JSym2X= 0.
 NMat=     4 NSing=     4 JSym2X= 0.
 NMat=     4 NSing=     4 JSym2X= 0.
 NMat=     4 NSing=     4 JSym2X= 0.
 NMat=     4 NSing=     4 JSym2X= 0.
 NMat=     4 NSing=     4 JSym2X= 0.
 NMat=     4 NSing=     4 JSym2X= 0.
 NMat=     4 NSing=     4 JSym2X= 0.
 NMat=     4 NSing=     4 JSym2X= 0.
 New state      1 was old state      3
 Root      1 not converged, maximum delta is    0.450299424254962
 No map to state      2
 No map to state      3
 No map to state      4
 No map to state      5
 No map to state      6
 No map to state      7
 New state      8 was old state     28
 Root      8 not converged, maximum delta is    0.332786943002357
 New state      9 was old state      8
 Root      9 not converged, maximum delta is    0.344194811401769
 No map to state     10
 New state     11 was old state      1
 Root     11 not converged, maximum delta is    0.452684969712638
 No map to state     12
 No map to state     13
 No map to state     14
 New state     15 was old state      4
 Root     15 not converged, maximum delta is    0.237110107371230
 New state     16 was old state      6
 Root     16 not converged, maximum delta is    0.323706167455290
 New state     17 was old state     10
 Root     17 not converged, maximum delta is    0.284766156446293
 New state     18 was old state      7
 Root     18 not converged, maximum delta is    0.318958791840261
 No map to state     19
 No map to state     20
 No map to state     21
 No map to state     22
 No map to state     23
 New state     24 was old state     11
 Root     24 not converged, maximum delta is    0.319398518200673
 New state     25 was old state      2
 Root     25 not converged, maximum delta is    0.316023311486423
 New state     26 was old state     13
 Root     26 not converged, maximum delta is    0.235392853955550
 No map to state     27
 No map to state     28
 No map to state     29
 No map to state     30
 No map to state     31
 New state     32 was old state     14
 Root     32 not converged, maximum delta is    0.458530240520657
 New state     33 was old state      5
 Root     33 not converged, maximum delta is    0.288598208221766
 No map to state     34
 New state     35 was old state     12
 Root     35 not converged, maximum delta is    0.382189122709855
 No map to state     36
 New state     37 was old state     17
 Root     37 not converged, maximum delta is    0.367722849434146
 No map to state     38
 No map to state     39
 No map to state     40
 Excitation Energies [eV] at current iteration:
 Root      1 :    13.506600526480879   Change is   -2.212295269445587
 Root      2 :    13.569037621299216
 Root      3 :    13.644535590951730
 Root      4 :    13.667760959043720
 Root      5 :    13.689583829275495
 Root      6 :    13.698644261663887
 Root      7 :    14.018227935769504
 Root      8 :    14.086451782051752   Change is   -7.136189013364267
 Root      9 :    14.123791031908768   Change is   -2.436524310241861
 Root     10 :    14.311570683072164
 Root     11 :    14.407628823698607   Change is   -1.006327249194126
 Root     12 :    14.478100359454402
 Root     13 :    14.510815726919466
 Root     14 :    14.558267941371044
 Root     15 :    14.610634735688526   Change is   -1.296458440052283
 Root     16 :    14.633234402145735   Change is   -1.667078403068467
 Root     17 :    14.667757662225320   Change is   -2.311314809464359
 Root     18 :    14.711770927692063   Change is   -1.636944967567552
 Root     19 :    14.796932931712114
 Root     20 :    14.903188522211700
 Root     21 :    15.143457514375937
 Root     22 :    15.242363336748594
 Root     23 :    15.326983501056066
 Root     24 :    15.409734060231923   Change is   -1.764505043405540
 Root     25 :    15.451752348413908   Change is   -0.199770095273072
 Root     26 :    15.508045545932395   Change is   -2.020717855013634
 Root     27 :    15.559418359226351
 Root     28 :    15.587181036195146
 Root     29 :    15.639781464758038
 Root     30 :    15.707081248243753
 Root     31 :    15.738404855323473
 Root     32 :    16.002006275351249   Change is   -1.734073659937345
 Root     33 :    16.012043957427075   Change is   -0.226478241656240
 Root     34 :    16.022333006068454
 Root     35 :    16.036033402985879   Change is   -1.422526570465865
 Root     36 :    16.151383029789042
 Root     37 :    16.176944480259721   Change is   -2.136065052394172
 Root     38 :    16.223392145992882
 Root     39 :    16.249110488221948
 Root     40 :    16.255371663597636
 Iteration     3 Dimension   240 NMult   160 NNew     80
 CISAX will form     4 AO SS matrices at one time.
 NMat=     4 NSing=     4 JSym2X= 0.
 NMat=     4 NSing=     4 JSym2X= 0.
 NMat=     4 NSing=     4 JSym2X= 0.
 NMat=     4 NSing=     4 JSym2X= 0.
 NMat=     4 NSing=     4 JSym2X= 0.
 NMat=     4 NSing=     4 JSym2X= 0.
 NMat=     4 NSing=     4 JSym2X= 0.
 NMat=     4 NSing=     4 JSym2X= 0.
 NMat=     4 NSing=     4 JSym2X= 0.
 NMat=     4 NSing=     4 JSym2X= 0.
 NMat=     4 NSing=     4 JSym2X= 0.
 NMat=     4 NSing=     4 JSym2X= 0.
 NMat=     4 NSing=     4 JSym2X= 0.
 NMat=     4 NSing=     4 JSym2X= 0.
 NMat=     4 NSing=     4 JSym2X= 0.
 NMat=     4 NSing=     4 JSym2X= 0.
 NMat=     4 NSing=     4 JSym2X= 0.
 NMat=     4 NSing=     4 JSym2X= 0.
 NMat=     4 NSing=     4 JSym2X= 0.
 NMat=     4 NSing=     4 JSym2X= 0.
 No map to state      1
 No map to state      2
 No map to state      3
 No map to state      4
 No map to state      5
 No map to state      6
 No map to state      7
 No map to state      8
 No map to state      9
 No map to state     10
 No map to state     11
 No map to state     12
 No map to state     13
 No map to state     14
 No map to state     15
 No map to state     16
 No map to state     17
 No map to state     18
 No map to state     19
 No map to state     20
 No map to state     21
 No map to state     22
 No map to state     23
 No map to state     24
 No map to state     25
 No map to state     26
 No map to state     27
 No map to state     28
 No map to state     29
 No map to state     30
 No map to state     31
 No map to state     32
 No map to state     33
 No map to state     34
 No map to state     35
 No map to state     36
 No map to state     37
 No map to state     38
 No map to state     39
 No map to state     40
 Excitation Energies [eV] at current iteration:
 Root      1 :    10.971009076025489
 Root      2 :    11.177064199989761
 Root      3 :    11.305605933254538
 Root      4 :    11.491107563929269
 Root      5 :    11.522414801640085
 Root      6 :    11.554058965964387
 Root      7 :    11.563882028190308
 Root      8 :    11.665160006385543
 Root      9 :    11.735132915747771
 Root     10 :    11.769086849447644
 Root     11 :    11.784490913054425
 Root     12 :    11.828691201656770
 Root     13 :    11.911427905456559
 Root     14 :    11.930954582332777
 Root     15 :    11.937728809802648
 Root     16 :    12.058450214744449
 Root     17 :    12.105736534042528
 Root     18 :    12.158025719548192
 Root     19 :    12.221382907300756
 Root     20 :    12.244720853622802
 Root     21 :    12.323181447583755
 Root     22 :    12.380498813376599
 Root     23 :    12.403174048581004
 Root     24 :    12.469934290535845
 Root     25 :    12.479989068598874
 Root     26 :    12.492878680693627
 Root     27 :    12.537806651290630
 Root     28 :    12.574052037218522
 Root     29 :    12.619841153517500
 Root     30 :    12.677684604084762
 Root     31 :    12.703635340174342
 Root     32 :    12.740661036434846
 Root     33 :    12.785733929214821
 Root     34 :    12.863114965285982
 Root     35 :    12.888950042939955
 Root     36 :    12.916554428272198
 Root     37 :    12.972451856602433
 Root     38 :    13.009024817012902
 Root     39 :    13.015661871100477
 Root     40 :    13.050861630762402
 Iteration     4 Dimension   320 NMult   240 NNew     80
 CISAX will form     4 AO SS matrices at one time.
 NMat=     4 NSing=     4 JSym2X= 0.
 NMat=     4 NSing=     4 JSym2X= 0.
 NMat=     4 NSing=     4 JSym2X= 0.
 NMat=     4 NSing=     4 JSym2X= 0.
 NMat=     4 NSing=     4 JSym2X= 0.
 NMat=     4 NSing=     4 JSym2X= 0.
 NMat=     4 NSing=     4 JSym2X= 0.
 NMat=     4 NSing=     4 JSym2X= 0.
 NMat=     4 NSing=     4 JSym2X= 0.
 NMat=     4 NSing=     4 JSym2X= 0.
 NMat=     4 NSing=     4 JSym2X= 0.
 NMat=     4 NSing=     4 JSym2X= 0.
 NMat=     4 NSing=     4 JSym2X= 0.
 NMat=     4 NSing=     4 JSym2X= 0.
 NMat=     4 NSing=     4 JSym2X= 0.
 NMat=     4 NSing=     4 JSym2X= 0.
 NMat=     4 NSing=     4 JSym2X= 0.
 NMat=     4 NSing=     4 JSym2X= 0.
 NMat=     4 NSing=     4 JSym2X= 0.
 NMat=     4 NSing=     4 JSym2X= 0.
 No map to state      1
 No map to state      2
 No map to state      3
 No map to state      4
 No map to state      5
 No map to state      6
 No map to state      7
 No map to state      8
 No map to state      9
 No map to state     10
 No map to state     11
 No map to state     12
 No map to state     13
 No map to state     14
 No map to state     15
 No map to state     16
 No map to state     17
 No map to state     18
 No map to state     19
 No map to state     20
 No map to state     21
 No map to state     22
 No map to state     23
 No map to state     24
 No map to state     25
 No map to state     26
 No map to state     27
 No map to state     28
 No map to state     29
 No map to state     30
 New state     31 was old state      2
 Root     31 not converged, maximum delta is    0.392340051356020
 No map to state     32
 No map to state     33
 No map to state     34
 No map to state     35
 No map to state     36
 No map to state     37
 No map to state     38
 No map to state     39
 No map to state     40
 Excitation Energies [eV] at current iteration:
 Root      1 :     8.271556367852195
 Root      2 :     8.398531780553149
 Root      3 :     8.580102272987411
 Root      4 :     8.752884400520911
 Root      5 :     8.827523995584507
 Root      6 :     8.913402296372482
 Root      7 :     8.939894982846777
 Root      8 :     9.136850490456762
 Root      9 :     9.178700237640232
 Root     10 :     9.204597242825477
 Root     11 :     9.214082949207361
 Root     12 :     9.282365041191756
 Root     13 :     9.348980582310194
 Root     14 :     9.386860548033299
 Root     15 :     9.455564259390462
 Root     16 :     9.510940220771211
 Root     17 :     9.592497590836803
 Root     18 :     9.621890341753030
 Root     19 :     9.706181524200005
 Root     20 :     9.764171427966266
 Root     21 :     9.799814677191817
 Root     22 :     9.846537349990244
 Root     23 :     9.877139660201962
 Root     24 :     9.896408490928581
 Root     25 :     9.916488369058751
 Root     26 :     9.944646447607305
 Root     27 :     9.973299996032493
 Root     28 :    10.023376205076962
 Root     29 :    10.053631054318421
 Root     30 :    10.072541237958498
 Root     31 :    10.124805370505181   Change is   -1.052258829484581
 Root     32 :    10.143530038990475
 Root     33 :    10.178350221388014
 Root     34 :    10.211904760037431
 Root     35 :    10.230675054884632
 Root     36 :    10.264474609664823
 Root     37 :    10.284678666810761
 Root     38 :    10.295349659309736
 Root     39 :    10.309441768260275
 Root     40 :    10.358600377481842
 Iteration     5 Dimension   400 NMult   320 NNew     80
 CISAX will form     4 AO SS matrices at one time.
 NMat=     4 NSing=     4 JSym2X= 0.
 NMat=     4 NSing=     4 JSym2X= 0.
 NMat=     4 NSing=     4 JSym2X= 0.
 NMat=     4 NSing=     4 JSym2X= 0.
 NMat=     4 NSing=     4 JSym2X= 0.
 NMat=     4 NSing=     4 JSym2X= 0.
 NMat=     4 NSing=     4 JSym2X= 0.
 NMat=     4 NSing=     4 JSym2X= 0.
 NMat=     4 NSing=     4 JSym2X= 0.
 NMat=     4 NSing=     4 JSym2X= 0.
 NMat=     4 NSing=     4 JSym2X= 0.
 NMat=     4 NSing=     4 JSym2X= 0.
 NMat=     4 NSing=     4 JSym2X= 0.
 NMat=     4 NSing=     4 JSym2X= 0.
 NMat=     4 NSing=     4 JSym2X= 0.
 NMat=     4 NSing=     4 JSym2X= 0.
 NMat=     4 NSing=     4 JSym2X= 0.
 NMat=     4 NSing=     4 JSym2X= 0.
 NMat=     4 NSing=     4 JSym2X= 0.
 NMat=     4 NSing=     4 JSym2X= 0.
 No map to state      1
 No map to state      2
 No map to state      3
 No map to state      4
 No map to state      5
 No map to state      6
 No map to state      7
 No map to state      8
 No map to state      9
 New state     10 was old state      3
 Root     10 not converged, maximum delta is    0.417069363642659
 No map to state     11
 No map to state     12
 No map to state     13
 No map to state     14
 New state     15 was old state     12
 Root     15 not converged, maximum delta is    0.455856216352699
 New state     16 was old state      6
 Root     16 not converged, maximum delta is    0.453215296229652
 New state     17 was old state      7
 Root     17 not converged, maximum delta is    0.591147169473519
 No map to state     18
 No map to state     19
 New state     20 was old state     16
 Root     20 not converged, maximum delta is    0.303240447169246
 No map to state     21
 No map to state     22
 No map to state     23
 No map to state     24
 No map to state     25
 No map to state     26
 No map to state     27
 New state     28 was old state      4
 Root     28 not converged, maximum delta is    0.594331964962384
 New state     29 was old state      1
 Root     29 not converged, maximum delta is    0.598333339334718
 No map to state     30
 No map to state     31
 No map to state     32
 New state     33 was old state      2
 Root     33 not converged, maximum delta is    0.576550884144797
 No map to state     34
 New state     35 was old state     10
 Root     35 not converged, maximum delta is    0.372696254503414
 No map to state     36
 No map to state     37
 No map to state     38
 New state     39 was old state     11
 Root     39 not converged, maximum delta is    0.397277198852993
 No map to state     40
 Excitation Energies [eV] at current iteration:
 Root      1 :     5.825777607530817
 Root      2 :     5.933218896391113
 Root      3 :     6.283723365912395
 Root      4 :     6.579525306131000
 Root      5 :     6.597945633282949
 Root      6 :     6.659301566605643
 Root      7 :     6.742309196799738
 Root      8 :     6.759594112945511
 Root      9 :     6.825308582949680
 Root     10 :     6.887000118760526   Change is   -1.693102154226884
 Root     11 :     6.951109263617798
 Root     12 :     6.974760709859249
 Root     13 :     7.130540340790994
 Root     14 :     7.327073510864825
 Root     15 :     7.359337358077064   Change is   -1.923027683114692
 Root     16 :     7.401876990157201   Change is   -1.511525306215280
 Root     17 :     7.420142615322621   Change is   -1.519752367524155
 Root     18 :     7.471530515358150
 Root     19 :     7.498235294822173
 Root     20 :     7.540972105351234   Change is   -1.969968115419977
 Root     21 :     7.646533847090460
 Root     22 :     7.657906012069257
 Root     23 :     7.685955065316004
 Root     24 :     7.736396381759135
 Root     25 :     7.764931547593028
 Root     26 :     7.810174087190669
 Root     27 :     7.870219509454477
 Root     28 :     7.936566939399648   Change is   -0.816317461121263
 Root     29 :     7.972302449615924   Change is   -0.299253918236271
 Root     30 :     7.981745067034365
 Root     31 :     8.010357318076947
 Root     32 :     8.051226779345745
 Root     33 :     8.079501227911578   Change is   -0.319030552641571
 Root     34 :     8.123037230056712
 Root     35 :     8.159312820287253   Change is   -1.045284422538223
 Root     36 :     8.196029631680281
 Root     37 :     8.249883642610746
 Root     38 :     8.261604820970728
 Root     39 :     8.300792291028666   Change is   -0.913290658178695
 Root     40 :     8.326505856743115
 Iteration     6 Dimension   480 NMult   400 NNew     80
 CISAX will form     4 AO SS matrices at one time.
 NMat=     4 NSing=     4 JSym2X= 0.
 NMat=     4 NSing=     4 JSym2X= 0.
 NMat=     4 NSing=     4 JSym2X= 0.
 NMat=     4 NSing=     4 JSym2X= 0.
 NMat=     4 NSing=     4 JSym2X= 0.
 NMat=     4 NSing=     4 JSym2X= 0.
 NMat=     4 NSing=     4 JSym2X= 0.
 NMat=     4 NSing=     4 JSym2X= 0.
 NMat=     4 NSing=     4 JSym2X= 0.
 NMat=     4 NSing=     4 JSym2X= 0.
 NMat=     4 NSing=     4 JSym2X= 0.
 NMat=     4 NSing=     4 JSym2X= 0.
 NMat=     4 NSing=     4 JSym2X= 0.
 NMat=     4 NSing=     4 JSym2X= 0.
 NMat=     4 NSing=     4 JSym2X= 0.
 NMat=     4 NSing=     4 JSym2X= 0.
 NMat=     4 NSing=     4 JSym2X= 0.
 NMat=     4 NSing=     4 JSym2X= 0.
 NMat=     4 NSing=     4 JSym2X= 0.
 NMat=     4 NSing=     4 JSym2X= 0.
 New state      1 was old state      4
 Root      1 not converged, maximum delta is    0.589659530591205
 New state      2 was old state     19
 Root      2 not converged, maximum delta is    0.580710512056140
 New state      3 was old state      2
 Root      3 not converged, maximum delta is    0.195974820809863
 New state      4 was old state     22
 Root      4 not converged, maximum delta is    0.638461695708465
 New state      5 was old state     17
 Root      5 not converged, maximum delta is    0.592419085434622
 New state      6 was old state      3
 Root      6 not converged, maximum delta is    0.634385011709483
 New state      7 was old state     27
 Root      7 not converged, maximum delta is    0.634934777733158
 No map to state      8
 New state      9 was old state     18
 Root      9 not converged, maximum delta is    0.386763978652553
 New state     10 was old state     29
 Root     10 not converged, maximum delta is    0.642312427343824
 New state     11 was old state     14
 Root     11 not converged, maximum delta is    0.668354563319787
 New state     12 was old state      1
 Root     12 not converged, maximum delta is    0.077264967058503
 No map to state     13
 New state     14 was old state      8
 Root     14 not converged, maximum delta is    0.560997334386485
 New state     15 was old state     26
 Root     15 not converged, maximum delta is    0.666560116113760
 No map to state     16
 New state     17 was old state      6
 Root     17 not converged, maximum delta is    0.477583484800580
 New state     18 was old state      5
 Root     18 not converged, maximum delta is    0.538367973496222
 No map to state     19
 New state     20 was old state      7
 Root     20 not converged, maximum delta is    0.141285314856086
 New state     21 was old state     33
 Root     21 not converged, maximum delta is    0.402004516555996
 New state     22 was old state     12
 Root     22 not converged, maximum delta is    0.324412445233099
 New state     23 was old state     11
 Root     23 not converged, maximum delta is    0.312986251385572
 New state     24 was old state     10
 Root     24 not converged, maximum delta is    0.290255879096252
 New state     25 was old state      9
 Root     25 not converged, maximum delta is    0.321210090264893
 New state     26 was old state     13
 Root     26 not converged, maximum delta is    0.514796624945313
 New state     27 was old state     39
 Root     27 not converged, maximum delta is    0.605134963029296
 New state     28 was old state     30
 Root     28 not converged, maximum delta is    0.509803230064386
 New state     29 was old state     34
 Root     29 not converged, maximum delta is    0.582319494288577
 New state     30 was old state     28
 Root     30 not converged, maximum delta is    0.441063898355112
 No map to state     31
 New state     32 was old state     16
 Root     32 not converged, maximum delta is    0.434631196206421
 New state     33 was old state     15
 Root     33 not converged, maximum delta is    0.269039385000274
 New state     34 was old state     20
 Root     34 not converged, maximum delta is    0.322165256337618
 No map to state     35
 No map to state     36
 No map to state     37
 New state     38 was old state     35
 Root     38 not converged, maximum delta is    0.363953570463820
 New state     39 was old state     25
 Root     39 not converged, maximum delta is    0.280778354004534
 New state     40 was old state     23
 Root     40 not converged, maximum delta is    0.440861241069473
 Excitation Energies [eV] at current iteration:
 Root      1 :     3.345267174093633   Change is   -3.234258132037366
 Root      2 :     4.016801293310141   Change is   -3.481434001512032
 Root      3 :     4.898247913220790   Change is   -1.034970983170324
 Root      4 :     4.925245247141480   Change is   -2.732660764927777
 Root      5 :     5.066790624446145   Change is   -2.353351990876476
 Root      6 :     5.155250386093625   Change is   -1.128472979818770
 Root      7 :     5.161654281626215   Change is   -2.708565227828263
 Root      8 :     5.321703747822689
 Root      9 :     5.407242344191593   Change is   -2.064288171166557
 Root     10 :     5.666320131559821   Change is   -2.305982318056104
 Root     11 :     5.679257391595887   Change is   -1.647816119268938
 Root     12 :     5.764053890023384   Change is   -0.061723717507432
 Root     13 :     6.016269611788502
 Root     14 :     6.171964849503797   Change is   -0.587629263441713
 Root     15 :     6.197296561110446   Change is   -1.612877526080224
 Root     16 :     6.241670137943111
 Root     17 :     6.325206875750178   Change is   -0.334094690855465
 Root     18 :     6.377045419564145   Change is   -0.220900213718803
 Root     19 :     6.428654985564719
 Root     20 :     6.544098925173110   Change is   -0.198210271626628
 Root     21 :     6.587014044039720   Change is   -1.492487183871859
 Root     22 :     6.646115324353490   Change is   -0.328645385505759
 Root     23 :     6.661272971442848   Change is   -0.289836292174950
 Root     24 :     6.691869100187591   Change is   -0.195131018572935
 Root     25 :     6.777769451707708   Change is   -0.047539131241972
 Root     26 :     6.840075277799633   Change is   -0.290465062991360
 Root     27 :     6.847380188749632   Change is   -1.453412102279034
 Root     28 :     6.879484664469167   Change is   -1.102260402565197
 Root     29 :     6.981058610451782   Change is   -1.141978619604929
 Root     30 :     7.033584519660084   Change is   -0.902982419739564
 Root     31 :     7.067570655138272
 Root     32 :     7.195325467680064   Change is   -0.206551522477137
 Root     33 :     7.248421063109443   Change is   -0.110916294967621
 Root     34 :     7.286830434452030   Change is   -0.254141670899203
 Root     35 :     7.294634502268827
 Root     36 :     7.307900006490755
 Root     37 :     7.332117754614805
 Root     38 :     7.355802029358301   Change is   -0.803510790928953
 Root     39 :     7.410103664432897   Change is   -0.354827883160130
 Root     40 :     7.498335111760133   Change is   -0.187619953555871
 Iteration     7 Dimension   560 NMult   480 NNew     80
 CISAX will form     4 AO SS matrices at one time.
 NMat=     4 NSing=     4 JSym2X= 0.
 NMat=     4 NSing=     4 JSym2X= 0.
 NMat=     4 NSing=     4 JSym2X= 0.
 NMat=     4 NSing=     4 JSym2X= 0.
 NMat=     4 NSing=     4 JSym2X= 0.
 NMat=     4 NSing=     4 JSym2X= 0.
 NMat=     4 NSing=     4 JSym2X= 0.
 NMat=     4 NSing=     4 JSym2X= 0.
 NMat=     4 NSing=     4 JSym2X= 0.
 NMat=     4 NSing=     4 JSym2X= 0.
 NMat=     4 NSing=     4 JSym2X= 0.
 NMat=     4 NSing=     4 JSym2X= 0.
 NMat=     4 NSing=     4 JSym2X= 0.
 NMat=     4 NSing=     4 JSym2X= 0.
 NMat=     4 NSing=     4 JSym2X= 0.
 NMat=     4 NSing=     4 JSym2X= 0.
 NMat=     4 NSing=     4 JSym2X= 0.
 NMat=     4 NSing=     4 JSym2X= 0.
 NMat=     4 NSing=     4 JSym2X= 0.
 NMat=     4 NSing=     4 JSym2X= 0.
 Root      1 not converged, maximum delta is    0.021440211573887
 Root      2 not converged, maximum delta is    0.017048836237974
 New state      3 was old state      4
 Root      3 not converged, maximum delta is    0.139748108327732
 New state      4 was old state      3
 Root      4 not converged, maximum delta is    0.139601000789235
 Root      5 not converged, maximum delta is    0.052944228045034
 Root      6 not converged, maximum delta is    0.207036358155342
 Root      7 not converged, maximum delta is    0.204339098570676
 Root      8 not converged, maximum delta is    0.069881910798641
 Root      9 not converged, maximum delta is    0.095666084391123
 Root     10 not converged, maximum delta is    0.068953864011117
 Root     11 not converged, maximum delta is    0.050300767572577
 Root     12 not converged, maximum delta is    0.023229449476668
 Root     13 not converged, maximum delta is    0.068691311989705
 Root     14 not converged, maximum delta is    0.034929998496410
 Root     15 not converged, maximum delta is    0.031530049653039
 Root     16 not converged, maximum delta is    0.030173438619636
 Root     17 not converged, maximum delta is    0.030131746972798
 Root     18 not converged, maximum delta is    0.007540229539050
 Root     19 not converged, maximum delta is    0.039777154269177
 New state     20 was old state     21
 Root     20 not converged, maximum delta is    0.181746078031147
 New state     21 was old state     23
 Root     21 not converged, maximum delta is    0.398974410078860
 New state     22 was old state     20
 Root     22 not converged, maximum delta is    0.010006378141607
 New state     23 was old state     22
 Root     23 not converged, maximum delta is    0.316899313696839
 Root     24 not converged, maximum delta is    0.151100131741604
 Root     25 not converged, maximum delta is    0.126990459809061
 New state     26 was old state     28
 Root     26 not converged, maximum delta is    0.370070377601094
 New state     27 was old state     26
 Root     27 not converged, maximum delta is    0.451686199448155
 New state     28 was old state     27
 Root     28 not converged, maximum delta is    0.202085294394818
 Root     29 not converged, maximum delta is    0.366277149178332
 Root     30 not converged, maximum delta is    0.313551720362820
 Root     31 not converged, maximum delta is    0.053119448600615
 Root     32 not converged, maximum delta is    0.225207308455761
 Root     33 not converged, maximum delta is    0.222595068089762
 New state     34 was old state     37
 Root     34 not converged, maximum delta is    0.226933224300872
 Root     35 not converged, maximum delta is    0.293495181716890
 Root     36 not converged, maximum delta is    0.242045528036756
 New state     37 was old state     34
 Root     37 not converged, maximum delta is    0.161267174399538
 Root     38 not converged, maximum delta is    0.217017610158250
 New state     39 was old state     40
 Root     39 not converged, maximum delta is    0.394754873867115
 New state     40 was old state     39
 Root     40 not converged, maximum delta is    0.038601959842107
 Excitation Energies [eV] at current iteration:
 Root      1 :     3.160200356881592   Change is   -0.185066817212042
 Root      2 :     3.961693236063707   Change is   -0.055108057246433
 Root      3 :     4.862029315482459   Change is   -0.063215931659020
 Root      4 :     4.864256156689569   Change is   -0.033991756531221
 Root      5 :     5.013767680529390   Change is   -0.053022943916755
 Root      6 :     5.100127065755998   Change is   -0.055123320337628
 Root      7 :     5.123211600647839   Change is   -0.038442680978376
 Root      8 :     5.202350119962957   Change is   -0.119353627859732
 Root      9 :     5.306832434408450   Change is   -0.100409909783144
 Root     10 :     5.627906360641834   Change is   -0.038413770917987
 Root     11 :     5.666039091611614   Change is   -0.013218299984273
 Root     12 :     5.757379031368321   Change is   -0.006674858655064
 Root     13 :     5.915058329375890   Change is   -0.101211282412612
 Root     14 :     6.160340434501878   Change is   -0.011624415001920
 Root     15 :     6.163648240604098   Change is   -0.033648320506347
 Root     16 :     6.191126467542078   Change is   -0.050543670401033
 Root     17 :     6.295375875031367   Change is   -0.029831000718811
 Root     18 :     6.367480279426475   Change is   -0.009565140137671
 Root     19 :     6.413180924930437   Change is   -0.015474060634282
 Root     20 :     6.528635973751044   Change is   -0.058378070288676
 Root     21 :     6.532504734948185   Change is   -0.128768236494663
 Root     22 :     6.538466791992782   Change is   -0.005632133180328
 Root     23 :     6.619302651462887   Change is   -0.026812672890603
 Root     24 :     6.663879748478326   Change is   -0.027989351709265
 Root     25 :     6.740415549670792   Change is   -0.037353902036916
 Root     26 :     6.793481261050418   Change is   -0.086003403418749
 Root     27 :     6.798963058919646   Change is   -0.041112218879987
 Root     28 :     6.812131607899047   Change is   -0.035248580850585
 Root     29 :     6.818594080586964   Change is   -0.162464529864819
 Root     30 :     6.883380492865218   Change is   -0.150204026794867
 Root     31 :     7.042516767347494   Change is   -0.025053887790777
 Root     32 :     7.058544545155883   Change is   -0.136780922524181
 Root     33 :     7.103137709101861   Change is   -0.145283354007582
 Root     34 :     7.202182003998884   Change is   -0.129935750615921
 Root     35 :     7.239749274583248   Change is   -0.054885227685579
 Root     36 :     7.245840111895995   Change is   -0.062059894594760
 Root     37 :     7.268528701568904   Change is   -0.018301732883127
 Root     38 :     7.311316419020398   Change is   -0.044485610337903
 Root     39 :     7.329651912066157   Change is   -0.168683199693976
 Root     40 :     7.377130314345933   Change is   -0.032973350086964
 Iteration     8 Dimension   640 NMult   560 NNew     80
 CISAX will form     4 AO SS matrices at one time.
 NMat=     4 NSing=     4 JSym2X= 0.
 NMat=     4 NSing=     4 JSym2X= 0.
 NMat=     4 NSing=     4 JSym2X= 0.
 NMat=     4 NSing=     4 JSym2X= 0.
 NMat=     4 NSing=     4 JSym2X= 0.
 NMat=     4 NSing=     4 JSym2X= 0.
 NMat=     4 NSing=     4 JSym2X= 0.
 NMat=     4 NSing=     4 JSym2X= 0.
 NMat=     4 NSing=     4 JSym2X= 0.
 NMat=     4 NSing=     4 JSym2X= 0.
 NMat=     4 NSing=     4 JSym2X= 0.
 NMat=     4 NSing=     4 JSym2X= 0.
 NMat=     4 NSing=     4 JSym2X= 0.
 NMat=     4 NSing=     4 JSym2X= 0.
 NMat=     4 NSing=     4 JSym2X= 0.
 NMat=     4 NSing=     4 JSym2X= 0.
 NMat=     4 NSing=     4 JSym2X= 0.
 NMat=     4 NSing=     4 JSym2X= 0.
 NMat=     4 NSing=     4 JSym2X= 0.
 NMat=     4 NSing=     4 JSym2X= 0.
 Root      1 not converged, maximum delta is    0.001297931145010
 Root      2 not converged, maximum delta is    0.000901067208559
 Root      3 not converged, maximum delta is    0.001623802346345
 Root      4 not converged, maximum delta is    0.000890965119282
 Root      5 not converged, maximum delta is    0.001268364446560
 Root      6 not converged, maximum delta is    0.001809524922329
 Root      7 not converged, maximum delta is    0.001915768966795
 Root      8 not converged, maximum delta is    0.001975388996872
 Root      9 not converged, maximum delta is    0.001431779041541
 Root     10 not converged, maximum delta is    0.001341773087190
 Root     11 not converged, maximum delta is    0.000565187871994
 Root     12 not converged, maximum delta is    0.000630771464000
 Root     13 not converged, maximum delta is    0.002409836946141
 Root     14 not converged, maximum delta is    0.001583943330031
 Root     15 not converged, maximum delta is    0.001210495228586
 Root     16 not converged, maximum delta is    0.002250528733011
 Root     17 not converged, maximum delta is    0.001520490293622
 Root     18 not converged, maximum delta is    0.000630631038070
 Root     19 not converged, maximum delta is    0.002242254960115
 Root     20 not converged, maximum delta is    0.191756276678735
 Root     21 not converged, maximum delta is    0.186543322756601
 Root     22 not converged, maximum delta is    0.003639990535456
 Root     23 not converged, maximum delta is    0.003137740071143
 Root     24 not converged, maximum delta is    0.005946124214051
 Root     25 not converged, maximum delta is    0.005216050452144
 Root     26 not converged, maximum delta is    0.064253511696355
 Root     27 not converged, maximum delta is    0.078139313928068
 Root     28 not converged, maximum delta is    0.032046238594461
 Root     29 not converged, maximum delta is    0.017259677461961
 Root     30 not converged, maximum delta is    0.014577456713906
 Root     31 not converged, maximum delta is    0.026475063307138
 Root     32 not converged, maximum delta is    0.023076748234922
 Root     33 not converged, maximum delta is    0.014633560283253
 Root     34 not converged, maximum delta is    0.099545613418023
 Root     35 not converged, maximum delta is    0.085679918604059
 Root     36 not converged, maximum delta is    0.046226581019564
 Root     37 not converged, maximum delta is    0.004738411779208
 New state     38 was old state     39
 Root     38 not converged, maximum delta is    0.161632921556107
 New state     39 was old state     38
 Root     39 not converged, maximum delta is    0.156505147331366
 Root     40 not converged, maximum delta is    0.610025236335940
 Excitation Energies [eV] at current iteration:
 Root      1 :     3.158650858962308   Change is   -0.001549497919283
 Root      2 :     3.961088482597895   Change is   -0.000604753465812
 Root      3 :     4.861247648515329   Change is   -0.000781666967131
 Root      4 :     4.863654523950418   Change is   -0.000601632739151
 Root      5 :     5.012963472109236   Change is   -0.000804208420153
 Root      6 :     5.099256390080757   Change is   -0.000870675675241
 Root      7 :     5.122631566127899   Change is   -0.000580034519939
 Root      8 :     5.200820267327732   Change is   -0.001529852635225
 Root      9 :     5.304827267015358   Change is   -0.002005167393092
 Root     10 :     5.627270755579308   Change is   -0.000635605062526
 Root     11 :     5.665840067707461   Change is   -0.000199023904152
 Root     12 :     5.757235729187386   Change is   -0.000143302180935
 Root     13 :     5.913372488148015   Change is   -0.001685841227875
 Root     14 :     6.159812366735201   Change is   -0.000528067766677
 Root     15 :     6.163066447786514   Change is   -0.000581792817584
 Root     16 :     6.190035806401064   Change is   -0.001090661141014
 Root     17 :     6.294268724390411   Change is   -0.001107150640956
 Root     18 :     6.367232696886663   Change is   -0.000247582539811
 Root     19 :     6.412691156646547   Change is   -0.000489768283890
 Root     20 :     6.526811924303883   Change is   -0.001824049447161
 Root     21 :     6.529310052914044   Change is   -0.003194682034142
 Root     22 :     6.538269932481480   Change is   -0.000196859511302
 Root     23 :     6.618289822453812   Change is   -0.001012829009075
 Root     24 :     6.662801880290251   Change is   -0.001077868188074
 Root     25 :     6.739432587878953   Change is   -0.000982961791839
 Root     26 :     6.790561844443419   Change is   -0.002919416606998
 Root     27 :     6.797347460545705   Change is   -0.001615598373941
 Root     28 :     6.810674307561375   Change is   -0.001457300337671
 Root     29 :     6.811388018115061   Change is   -0.007206062471903
 Root     30 :     6.876627977069904   Change is   -0.006752515795314
 Root     31 :     7.041471224486034   Change is   -0.001045542861460
 Root     32 :     7.050322688859226   Change is   -0.008221856296657
 Root     33 :     7.098154577600893   Change is   -0.004983131500968
 Root     34 :     7.189978155894402   Change is   -0.012203848104482
 Root     35 :     7.230198329154550   Change is   -0.009550945428699
 Root     36 :     7.242974456777655   Change is   -0.002865655118339
 Root     37 :     7.267200437477332   Change is   -0.001328264091572
 Root     38 :     7.295166462729877   Change is   -0.034485449336280
 Root     39 :     7.310624408718315   Change is   -0.000692010302083
 Root     40 :     7.361086932047305   Change is   -0.016043382298628
 Iteration     9 Dimension   720 NMult   640 NNew     80
 CISAX will form     4 AO SS matrices at one time.
 NMat=     4 NSing=     4 JSym2X= 0.
 NMat=     4 NSing=     4 JSym2X= 0.
 NMat=     4 NSing=     4 JSym2X= 0.
 NMat=     4 NSing=     4 JSym2X= 0.
 NMat=     4 NSing=     4 JSym2X= 0.
 NMat=     4 NSing=     4 JSym2X= 0.
 NMat=     4 NSing=     4 JSym2X= 0.
 NMat=     4 NSing=     4 JSym2X= 0.
 NMat=     4 NSing=     4 JSym2X= 0.
 NMat=     4 NSing=     4 JSym2X= 0.
 NMat=     4 NSing=     4 JSym2X= 0.
 NMat=     4 NSing=     4 JSym2X= 0.
 NMat=     4 NSing=     4 JSym2X= 0.
 NMat=     4 NSing=     4 JSym2X= 0.
 NMat=     4 NSing=     4 JSym2X= 0.
 NMat=     4 NSing=     4 JSym2X= 0.
 NMat=     4 NSing=     4 JSym2X= 0.
 NMat=     4 NSing=     4 JSym2X= 0.
 NMat=     4 NSing=     4 JSym2X= 0.
 NMat=     4 NSing=     4 JSym2X= 0.
 Root      1 not converged, maximum delta is    0.000127852739570
 Root      2 not converged, maximum delta is    0.000091444692784
 Root      3 not converged, maximum delta is    0.000235970910873
 Root      4 not converged, maximum delta is    0.000253733710749
 Root      5 not converged, maximum delta is    0.000111098540126
 Root      6 not converged, maximum delta is    0.000186240708237
 Root      7 not converged, maximum delta is    0.000108261673623
 Root      8 not converged, maximum delta is    0.000174063975166
 Root      9 not converged, maximum delta is    0.000187832974724
 Root     10 not converged, maximum delta is    0.000110860868165
 Root     11 not converged, maximum delta is    0.000100060989526
 Root     12 not converged, maximum delta is    0.000077072997956
 Root     13 not converged, maximum delta is    0.000305733537765
 Root     14 not converged, maximum delta is    0.000140303659143
 Root     15 not converged, maximum delta is    0.000184499591792
 Root     16 not converged, maximum delta is    0.000299663049104
 Root     17 not converged, maximum delta is    0.000253231793541
 Root     18 not converged, maximum delta is    0.000099982601153
 Root     19 not converged, maximum delta is    0.000466407858661
 Root     20 not converged, maximum delta is    0.009152883735446
 Root     21 not converged, maximum delta is    0.008877919673537
 Root     22 not converged, maximum delta is    0.000288541308718
 Root     23 not converged, maximum delta is    0.000225627866880
 Root     24 not converged, maximum delta is    0.001090338637903
 Root     25 not converged, maximum delta is    0.000829303893972
 Root     26 not converged, maximum delta is    0.001431021022521
 Root     27 not converged, maximum delta is    0.001726344711390
 Root     28 not converged, maximum delta is    0.020469689354152
 Root     29 not converged, maximum delta is    0.021408345249654
 Root     30 not converged, maximum delta is    0.002669133139901
 Root     31 not converged, maximum delta is    0.001940646581215
 Root     32 not converged, maximum delta is    0.001538642396744
 Root     33 not converged, maximum delta is    0.003173520745896
 Root     34 not converged, maximum delta is    0.005841064566764
 Root     35 not converged, maximum delta is    0.006179339069996
 Root     36 not converged, maximum delta is    0.001224008476800
 Root     37 not converged, maximum delta is    0.001144779806963
 Root     38 not converged, maximum delta is    0.017536973998546
 Root     39 not converged, maximum delta is    0.011071634411225
 Root     40 not converged, maximum delta is    0.048049288123100
 Excitation Energies [eV] at current iteration:
 Root      1 :     3.158637270332718   Change is   -0.000013588629590
 Root      2 :     3.961080309420072   Change is   -0.000008173177823
 Root      3 :     4.861236296977930   Change is   -0.000011351537398
 Root      4 :     4.863641587520010   Change is   -0.000012936430408
 Root      5 :     5.012949191394794   Change is   -0.000014280714442
 Root      6 :     5.099241175040609   Change is   -0.000015215040148
 Root      7 :     5.122623107098714   Change is   -0.000008459029186
 Root      8 :     5.200798518434094   Change is   -0.000021748893638
 Root      9 :     5.304771995078450   Change is   -0.000055271936908
 Root     10 :     5.627261008517940   Change is   -0.000009747061368
 Root     11 :     5.665836268270898   Change is   -0.000003799436563
 Root     12 :     5.757232159351984   Change is   -0.000003569835401
 Root     13 :     5.913338253691403   Change is   -0.000034234456611
 Root     14 :     6.159790225707823   Change is   -0.000022141027377
 Root     15 :     6.163052391011724   Change is   -0.000014056774790
 Root     16 :     6.190014542398486   Change is   -0.000021264002579
 Root     17 :     6.294215200339050   Change is   -0.000053524051361
 Root     18 :     6.367224233218682   Change is   -0.000008463667981
 Root     19 :     6.412675027958070   Change is   -0.000016128688477
 Root     20 :     6.526746093224337   Change is   -0.000065831079545
 Root     21 :     6.529232178359615   Change is   -0.000077874554429
 Root     22 :     6.538261263537222   Change is   -0.000008668944259
 Root     23 :     6.618250674606382   Change is   -0.000039147847430
 Root     24 :     6.662753532549924   Change is   -0.000048347740328
 Root     25 :     6.739398611632326   Change is   -0.000033976246628
 Root     26 :     6.790466307370857   Change is   -0.000095537072563
 Root     27 :     6.797299201356877   Change is   -0.000048259188828
 Root     28 :     6.810621976185179   Change is   -0.000052331376196
 Root     29 :     6.811157908623673   Change is   -0.000230109491388
 Root     30 :     6.876392618243283   Change is   -0.000235358826621
 Root     31 :     7.041416544928834   Change is   -0.000054679557199
 Root     32 :     7.050043031627398   Change is   -0.000279657231828
 Root     33 :     7.097914060637346   Change is   -0.000240516963546
 Root     34 :     7.189233754243485   Change is   -0.000744401650917
 Root     35 :     7.229728291012683   Change is   -0.000470038141866
 Root     36 :     7.242842914820125   Change is   -0.000131541957531
 Root     37 :     7.267106521897918   Change is   -0.000093915579414
 Root     38 :     7.293635814021449   Change is   -0.001530648708427
 Root     39 :     7.310310001051900   Change is   -0.000314407666415
 Root     40 :     7.353434833174945   Change is   -0.007652098872360
 Iteration    10 Dimension   800 NMult   720 NNew     80
 CISAX will form     4 AO SS matrices at one time.
 NMat=     4 NSing=     4 JSym2X= 0.
 NMat=     4 NSing=     4 JSym2X= 0.
 NMat=     4 NSing=     4 JSym2X= 0.
 NMat=     4 NSing=     4 JSym2X= 0.
 NMat=     4 NSing=     4 JSym2X= 0.
 NMat=     4 NSing=     4 JSym2X= 0.
 NMat=     4 NSing=     4 JSym2X= 0.
 NMat=     4 NSing=     4 JSym2X= 0.
 NMat=     4 NSing=     4 JSym2X= 0.
 NMat=     4 NSing=     4 JSym2X= 0.
 NMat=     4 NSing=     4 JSym2X= 0.
 NMat=     4 NSing=     4 JSym2X= 0.
 NMat=     4 NSing=     4 JSym2X= 0.
 NMat=     4 NSing=     4 JSym2X= 0.
 NMat=     4 NSing=     4 JSym2X= 0.
 NMat=     4 NSing=     4 JSym2X= 0.
 NMat=     4 NSing=     4 JSym2X= 0.
 NMat=     4 NSing=     4 JSym2X= 0.
 NMat=     4 NSing=     4 JSym2X= 0.
 NMat=     4 NSing=     4 JSym2X= 0.
 Root      1 not converged, maximum delta is    0.000007081696697
 Root      2 not converged, maximum delta is    0.000008116314756
 Root      3 not converged, maximum delta is    0.000009461937331
 Root      4 not converged, maximum delta is    0.000012564593116
 Root      5 not converged, maximum delta is    0.000013638472169
 Root      6 not converged, maximum delta is    0.000014378276396
 Root      7 not converged, maximum delta is    0.000015730955433
 Root      8 not converged, maximum delta is    0.000014662330498
 Root      9 not converged, maximum delta is    0.000028243300327
 Root     10 not converged, maximum delta is    0.000016874536399
 Root     11 not converged, maximum delta is    0.000014216514642
 Root     12 not converged, maximum delta is    0.000013874488353
 Root     13 not converged, maximum delta is    0.000056006299002
 Root     14 not converged, maximum delta is    0.000021388734892
 Root     15 not converged, maximum delta is    0.000034088472462
 Root     16 not converged, maximum delta is    0.000014887725428
 Root     17 not converged, maximum delta is    0.000035346495093
 Root     18 not converged, maximum delta is    0.000015108574710
 Root     19 not converged, maximum delta is    0.000031235079750
 Root     20 not converged, maximum delta is    0.000201932902353
 Root     21 not converged, maximum delta is    0.000192440487963
 Root     22 not converged, maximum delta is    0.000017526125260
 Root     23 not converged, maximum delta is    0.000051599934327
 Root     24 not converged, maximum delta is    0.000077580054571
 Root     25 not converged, maximum delta is    0.000046613070307
 Root     26 not converged, maximum delta is    0.000080916527620
 Root     27 not converged, maximum delta is    0.000058260051383
 Root     28 not converged, maximum delta is    0.000660951215154
 Root     29 not converged, maximum delta is    0.000686983174681
 Root     30 not converged, maximum delta is    0.000193979070595
 Root     31 not converged, maximum delta is    0.000124123659172
 Root     32 not converged, maximum delta is    0.000213554486119
 Root     33 not converged, maximum delta is    0.000340919656004
 Root     34 not converged, maximum delta is    0.000436999085673
 Root     35 not converged, maximum delta is    0.000203261764226
 Root     36 not converged, maximum delta is    0.000133903299574
 Root     37 not converged, maximum delta is    0.000089389787957
 Root     38 not converged, maximum delta is    0.000706026518224
 Root     39 not converged, maximum delta is    0.001193603378436
 Root     40 not converged, maximum delta is    0.001719449840764
 Excitation Energies [eV] at current iteration:
 Root      1 :     3.158637137105512   Change is   -0.000000133227206
 Root      2 :     3.961080200337536   Change is   -0.000000109082536
 Root      3 :     4.861236144958846   Change is   -0.000000152019085
 Root      4 :     4.863641300302166   Change is   -0.000000287217845
 Root      5 :     5.012948862007182   Change is   -0.000000329387612
 Root      6 :     5.099240854671814   Change is   -0.000000320368795
 Root      7 :     5.122622954251162   Change is   -0.000000152847551
 Root      8 :     5.200798170794193   Change is   -0.000000347639901
 Root      9 :     5.304770386184185   Change is   -0.000001608894265
 Root     10 :     5.627260798841096   Change is   -0.000000209676844
 Root     11 :     5.665836174089368   Change is   -0.000000094181530
 Root     12 :     5.757232052860875   Change is   -0.000000106491109
 Root     13 :     5.913337393548253   Change is   -0.000000860143151
 Root     14 :     6.159789219739481   Change is   -0.000001005968342
 Root     15 :     6.163052025767558   Change is   -0.000000365244165
 Root     16 :     6.190014070438538   Change is   -0.000000471959947
 Root     17 :     6.294212343836907   Change is   -0.000002856502143
 Root     18 :     6.367223864416078   Change is   -0.000000368802604
 Root     19 :     6.412674521262495   Change is   -0.000000506695575
 Root     20 :     6.526744023386122   Change is   -0.000002069838214
 Root     21 :     6.529230147039461   Change is   -0.000002031320155
 Root     22 :     6.538260916904590   Change is   -0.000000346632632
 Root     23 :     6.618248786671654   Change is   -0.000001887934728
 Root     24 :     6.662751907447392   Change is   -0.000001625102532
 Root     25 :     6.739397695396607   Change is   -0.000000916235718
 Root     26 :     6.790463567271383   Change is   -0.000002740099474
 Root     27 :     6.797297526010525   Change is   -0.000001675346351
 Root     28 :     6.810620377954407   Change is   -0.000001598230772
 Root     29 :     6.811151670809939   Change is   -0.000006237813734
 Root     30 :     6.876385702765971   Change is   -0.000006915477312
 Root     31 :     7.041413313850661   Change is   -0.000003231078173
 Root     32 :     7.050034971318848   Change is   -0.000008060308551
 Root     33 :     7.097904304366689   Change is   -0.000009756270657
 Root     34 :     7.189211975682600   Change is   -0.000021778560885
 Root     35 :     7.229715076312902   Change is   -0.000013214699781
 Root     36 :     7.242836605419475   Change is   -0.000006309400650
 Root     37 :     7.267099613868481   Change is   -0.000006908029437
 Root     38 :     7.293584002625316   Change is   -0.000051811396134
 Root     39 :     7.310290091687008   Change is   -0.000019909364892
 Root     40 :     7.353217295245984   Change is   -0.000217537928961
 Iteration    11 Dimension   880 NMult   800 NNew     80
 CISAX will form     4 AO SS matrices at one time.
 NMat=     4 NSing=     4 JSym2X= 0.
 NMat=     4 NSing=     4 JSym2X= 0.
 NMat=     4 NSing=     4 JSym2X= 0.
 NMat=     4 NSing=     4 JSym2X= 0.
 NMat=     4 NSing=     4 JSym2X= 0.
 NMat=     4 NSing=     4 JSym2X= 0.
 NMat=     4 NSing=     4 JSym2X= 0.
 NMat=     4 NSing=     4 JSym2X= 0.
 NMat=     4 NSing=     4 JSym2X= 0.
 NMat=     4 NSing=     4 JSym2X= 0.
 NMat=     4 NSing=     4 JSym2X= 0.
 NMat=     4 NSing=     4 JSym2X= 0.
 NMat=     4 NSing=     4 JSym2X= 0.
 NMat=     4 NSing=     4 JSym2X= 0.
 NMat=     4 NSing=     4 JSym2X= 0.
 NMat=     4 NSing=     4 JSym2X= 0.
 NMat=     4 NSing=     4 JSym2X= 0.
 NMat=     4 NSing=     4 JSym2X= 0.
 NMat=     4 NSing=     4 JSym2X= 0.
 NMat=     4 NSing=     4 JSym2X= 0.
 Root      1 has converged.
 Root      2 has converged.
 Root      3 has converged.
 Root      4 not converged, maximum delta is    0.000001810504832
 Root      5 not converged, maximum delta is    0.000001916212377
 Root      6 not converged, maximum delta is    0.000001764708655
 Root      7 not converged, maximum delta is    0.000001251500153
 Root      8 not converged, maximum delta is    0.000001569411333
 Root      9 not converged, maximum delta is    0.000007052465793
 Root     10 not converged, maximum delta is    0.000002268362031
 Root     11 not converged, maximum delta is    0.000001591329363
 Root     12 not converged, maximum delta is    0.000001314862854
 Root     13 not converged, maximum delta is    0.000003439978568
 Root     14 not converged, maximum delta is    0.000004680480500
[...]
 .00189348,-0.00007937,0.00035118,-0.00018702,-0.00006476,-0.00039159,-
 0.00056686,-0.00013264,-0.00041944,-0.00017035,0.00000999,0.00014319,0
 .00001561,-0.00006617,-0.00001547,0.00002119,0.00001875,-0.00007976,0.
 00002310,-0.00008432,-0.00002066,0.00002175,-0.00001278,0.00004038,0.0
 0001491,-0.01084818,0.00399647,0.01035520,-0.26999902,0.08690763,0.114
 08701,-0.00203883,0.00409286,0.00045507,0.00293437,0.00151804,0.002292
 38,-0.00002698,-0.00143324,-0.00088245,0.28070387,0.00056063,-0.000007
 94,-0.00072678,0.00323835,0.00103331,0.00390814,0.00033037,-0.00003936
 ,0.00036904,-0.00052342,-0.00093015,0.00015068,-0.00028600,-0.00058196
 ,-0.00038928,0.00003787,0.00019565,0.00010180,-0.00010738,0.00001774,-
 0.00007161,0.00014299,-0.00008951,-0.00015653,0.00002690,-0.00016080,0
 .00012827,-0.00003694,0.00009374,-0.00005719,0.01669037,-0.00107007,-0
 .00941510,0.08707613,-0.07141412,-0.03227505,-0.00879628,0.00754016,0.
 00552571,0.00179450,0.00389760,0.00432741,-0.00164995,-0.00143941,-0.0
 0116521,-0.09625557,0.06518935,-0.00065535,0.00013529,0.00041538,-0.00
 117425,0.00348176,-0.00022116,-0.00015086,0.00031683,-0.00010821,-0.00
 033955,-0.00006963,-0.00062240,-0.00034174,-0.00025088,-0.00005369,0.0
 0021002,-0.00000245,0.00002894,0.00019329,-0.00016086,0.00002794,-0.00
 038491,0.00007779,0.00016456,-0.00003271,0.00014861,-0.00034002,0.0001
 3515,-0.00012401,0.00014504,-0.01415320,0.00580394,0.01000695,0.114061
 57,-0.03228234,-0.10792879,0.02520179,-0.00973294,-0.00629537,0.001534
 91,0.00475855,-0.00365354,-0.00042965,-0.00144304,0.00022827,-0.123518
 42,0.03133645,0.10864442,-0.00018359,-0.00033627,-0.00025678,-0.000427
 89,-0.00063688,0.00033870,0.00007177,0.00006674,0.00009178,-0.00211763
 ,0.00225105,0.00418965,-0.00016933,0.00060313,-0.00104706,-0.00035779,
 0.00022521,0.00036944,0.00009269,0.00001492,-0.00005272,-0.00016183,-0
 .00001791,0.00010244,-0.00009778,0.00008095,-0.00016980,0.00006985,-0.
 00004955,-0.00006191,0.00204874,0.00157699,0.00321384,0.00838127,-0.00
 519997,0.00587873,-0.16378069,0.12488558,-0.08445550,-0.01057963,0.016
 83427,-0.01454929,0.00024461,-0.00034401,0.00027087,-0.00047374,-0.001
 81935,-0.00131599,0.16737425,-0.00040959,-0.00054469,-0.00029753,-0.00
 049005,-0.00056025,-0.00059005,0.00015590,0.00013397,0.00008399,0.0025
 8769,0.00346249,-0.00001421,-0.00011899,-0.00019665,0.00040915,0.00025
 802,0.00020607,-0.00002537,0.00006476,0.00000893,-0.00000547,-0.000027
 31,-0.00009244,0.00005557,-0.00011672,-0.00000737,-0.00004068,0.000029
 45,-0.00009469,0.00000009,0.00112283,0.00467370,0.00364152,0.00777232,
 -0.00146290,0.00310840,0.12496573,-0.16344063,0.09900112,0.00390486,-0
 .00127900,0.00607051,0.00027751,-0.00031786,0.00011233,-0.00206714,-0.
 00239890,-0.00157860,-0.13660351,0.16334069,-0.00006536,-0.00044963,-0
 .00003641,0.00012593,-0.00036835,-0.00063071,-0.00010550,0.00018907,0.
 00002576,0.00343424,0.00042870,0.00022501,0.00040505,-0.00046837,0.000
 40198,0.00033600,0.00002273,-0.00007136,-0.00018662,0.00006845,0.00012
 359,0.00017707,0.00002646,-0.00033261,0.00024533,-0.00028452,0.0002051
 6,-0.00023800,0.00009412,-0.00000072,0.00390812,0.00325601,-0.00354500
 ,-0.01889197,0.01835821,-0.00773503,-0.08427216,0.09891524,-0.12291431
 ,0.00985294,-0.00906663,0.00999748,-0.00092518,0.00084353,-0.00061246,
 -0.00085269,-0.00187885,0.00007775,0.08806237,-0.10865092,0.12459860,0
 .00058644,0.00024054,-0.00064222,-0.00107338,0.00471626,-0.00039714,0.
 00013867,0.00021906,0.00002028,0.00793621,0.00630813,-0.01686054,0.000
 17718,-0.00124611,-0.00214214,0.00010612,-0.00030297,0.00012952,0.0000
 3585,-0.00002206,0.00009455,0.00001809,0.00004069,-0.00005866,0.000073
 09,-0.00009727,0.00009286,-0.00012087,0.00009704,0.00000300,-0.0004842
 1,0.00031217,-0.00036141,-0.00335803,0.00389153,0.00245994,-0.00118711
 ,-0.00970415,0.02542889,-0.06739777,-0.01408671,0.06634372,-0.00001623
 ,-0.00016870,-0.00003648,-0.00025398,-0.00051988,0.00119714,0.00009417
 ,-0.00136356,-0.00109467,0.06530622,-0.00051390,0.00027582,0.00087734,
 0.00522503,0.00182654,0.00273226,0.00015875,0.00034311,0.00011773,-0.0
 0572343,-0.00163026,0.01709608,-0.00264272,-0.00177246,-0.00072489,-0.
 00001712,-0.00013958,-0.00030279,0.00002739,0.00007937,-0.00004696,0.0
 0000105,0.00002250,0.00004725,-0.00002407,0.00002863,-0.00008383,0.000
 06424,-0.00001355,0.00008829,0.00021416,-0.00038525,-0.00005654,0.0035
 7780,0.00269667,0.00026701,0.00347045,0.00741293,-0.00899604,-0.014420
 59,-0.07715144,0.09992226,-0.00016777,-0.00018092,-0.00007422,0.000103
 35,0.00010866,-0.00049826,-0.00161407,-0.00152123,-0.00104172,0.011801
 62,0.07062034,0.00077228,0.00002867,-0.00052994,-0.00138185,0.00329693
 ,0.00164663,0.00009946,0.00006161,0.00029526,0.00615078,0.00310607,-0.
 00926812,0.00061081,-0.00231408,-0.00000276,-0.00043805,0.00003298,0.0
 0013262,-0.00000868,0.00001683,0.00006237,0.00002846,-0.00000302,0.000
 01852,-0.00006959,0.00000199,0.00003727,0.00009293,0.00005474,-0.00012
 509,-0.00020528,-0.00015183,0.00025754,0.00308910,-0.00012599,0.001665
 92,0.00050568,0.00640131,-0.00794598,0.06672306,0.09941602,-0.30080783
 ,-0.00003746,-0.00007089,-0.00014010,0.00000093,0.00023074,-0.00054094
 ,-0.00064837,-0.00131309,0.00019154,-0.07435648,-0.10881026,0.31487376
 ,-0.06975903,-0.01438398,0.07008993,0.00815895,0.00687903,-0.01725030,
 -0.00129594,-0.00907483,0.02472496,-0.00130324,0.00391778,-0.00046889,
 -0.00057207,0.00037202,-0.00002487,-0.00322600,0.00388309,0.00142085,0
 .00052306,-0.00219817,0.00061760,-0.00012072,0.00007768,-0.00039826,0.
 00017310,0.00018718,0.00001786,0.00015440,-0.00074328,0.00134761,0.000
 51813,-0.00092595,-0.00197527,-0.00016154,-0.00022810,0.00021981,0.000
 17005,0.00017698,0.00002353,0.00042108,0.00023124,-0.00087706,-0.00014
 311,0.00014916,0.00053028,-0.00000926,-0.00001383,-0.00001670,0.000009
 75,0.00003413,0.00005614,-0.00038922,-0.00019213,-0.00034401,0.0674525
 2,-0.01434659,-0.07316048,0.09543609,-0.00564840,-0.00092602,0.0176516
 7,0.00340745,0.00672036,-0.00755558,0.00460996,0.00117617,0.00195320,0
 .00037001,-0.00018029,0.00003208,0.00320233,0.00274821,0.00068703,-0.0
 0091329,-0.00126276,-0.00194761,-0.00021352,-0.00025261,0.00004242,0.0
 0017700,0.00036646,0.00005929,0.00013144,0.00016423,-0.00037230,-0.002
 21073,-0.00125479,-0.00044822,0.00005992,-0.00021617,-0.00032130,0.000
 19136,0.00036730,0.00005774,-0.00064885,-0.00004472,0.00094081,0.00070
 130,0.00028610,-0.00026021,-0.00000586,-0.00005109,0.00000241,0.000066
 21,0.00007232,0.00000297,-0.00021089,-0.00080966,-0.00019313,0.0113314
 7,0.06641794,0.07029421,0.09576765,-0.29885534,0.00717142,0.00331193,-
 0.00983033,0.00009707,0.00648896,-0.00801941,-0.00180279,0.00279041,0.
 00157360,-0.00003177,0.00002035,0.00005960,0.00281772,-0.00006588,0.00
 190937,-0.00187840,-0.00061378,0.00048648,0.00015743,-0.00025590,-0.00
 000334,-0.00000874,0.00007461,0.00034294,-0.00036368,0.00061368,-0.000
 72834,0.00043850,-0.00195119,0.00046733,-0.00031853,0.00001326,0.00000
 290,0.00005292,0.00003795,0.00034749,0.00082412,-0.00004540,-0.0007779
 7,-0.00052193,0.00037069,0.00045426,-0.00003431,0.00001119,-0.00003204
 ,-0.00000853,0.00004002,0.00004590,-0.00034794,-0.00019076,-0.00026277
 ,-0.07717202,-0.10589491,0.31262617,0.00039483,-0.00058435,0.00117661,
 0.00013263,0.00015650,0.00007691,-0.00333071,0.00434578,0.00203789,0.0
 0005799,-0.00003804,-0.00033518,0.00038378,-0.00253701,0.00050670,-0.0
 0159390,-0.00921073,0.02400478,-0.00062575,0.00016277,0.00004384,-0.00
 146766,0.00419059,-0.00132977,0.00911223,0.00721142,-0.01879126,-0.073
 34630,-0.01683482,0.07581279,0.00007524,0.00003830,-0.00008667,-0.0000
 0100,-0.00000217,0.00006796,0.00009493,-0.00001802,-0.00011264,-0.0001
 1065,0.00007001,0.00007413,-0.00000440,-0.00005298,-0.00004489,0.00000
 284,-0.00000019,-0.00000307,0.00000933,0.00000577,0.00000518,-0.000048
 70,0.00002647,-0.00003317,-0.00055206,-0.00024788,-0.00001734,0.070573
 59,0.00017470,0.00042549,-0.00018754,0.00021342,0.00034803,0.00008607,
 0.00382315,0.00371032,0.00112644,-0.00031735,-0.00010122,-0.00004141,-
 0.00114119,-0.00196773,-0.00224060,0.00282870,0.00606713,-0.00741934,0
 .00025736,-0.00026878,-0.00030246,0.00450067,0.00126384,0.00265788,-0.
 00590146,-0.00094595,0.01758245,-0.01655981,-0.07236283,0.09419788,-0.
 00000789,0.00004950,0.00006098,0.00003415,0.00003670,-0.00002704,-0.00
 008786,0.00001212,0.00003635,0.00010039,-0.00002223,0.00004695,-0.0000
 5621,-0.00008883,-0.00003624,-0.00000262,0.00000123,0.00000256,0.00000
 368,0.00001920,0.00001127,0.00000247,-0.00003561,-0.00000793,-0.000269
 52,-0.00068248,-0.00039933,0.01406396,0.06633791,-0.00027111,0.0006129
 5,-0.00049160,-0.00001229,0.00012609,0.00029295,0.00302924,0.00054794,
 0.00200378,0.00023981,-0.00036462,0.00014155,-0.00225855,-0.00064835,-
 0.00001197,0.00036693,0.00554044,-0.00745571,-0.00011988,-0.00021717,0
 .00028307,-0.00198112,0.00301384,0.00121125,0.00700807,0.00365267,-0.0
 0987350,0.07519993,0.09428005,-0.29972080,0.00002071,0.00000490,0.0000
 5376,-0.00001952,0.00002220,0.00002268,0.00004333,-0.00005976,0.000033
 08,0.00000112,0.00010747,-0.00012590,-0.00004708,-0.00003710,-0.000015
 79,0.00000316,-0.00000062,-0.00000183,0.00001296,0.00000758,-0.0000031
 6,0.00000375,-0.00002896,0.00001067,-0.00002209,-0.00039686,-0.0002301
 4,-0.08117969,-0.10474646,0.31398280,-0.00012351,-0.00038320,-0.000132
 57,0.00001311,0.00013546,0.00002533,0.00001171,-0.00032375,-0.00061905
 ,-0.00009156,0.00035235,-0.00021149,-0.00040494,-0.00020902,0.00079923
 ,0.00051973,0.00349029,-0.00209477,0.00274917,0.00133118,0.00216162,-0
 .00234313,0.00381486,0.00028558,-0.28380680,0.07798004,0.11085289,-0.0
 1166467,0.00339727,0.01033845,-0.00001847,0.00002248,0.00000677,-0.000
 08534,0.00000011,0.00002008,0.00001108,-0.00007660,0.00003319,-0.00006
 408,-0.00002029,0.00002290,0.00000317,-0.00000300,0.00000288,-0.000002
 20,0.00001337,0.00000035,-0.00000914,0.00002295,0.00000105,0.00001237,
 0.00000721,0.00000182,0.00001703,0.00003621,0.00003518,0.00014777,-0.0
 0130989,-0.00080792,0.29563286,-0.00031718,-0.00059562,-0.00036561,0.0
 0004534,0.00018172,0.00011776,-0.00045930,-0.00092793,0.00000510,0.000
 32217,-0.00000851,0.00033645,0.00051300,-0.00000331,-0.00068149,0.0031
 5711,0.00140194,0.00389970,0.00179212,0.00414437,0.00435191,-0.0091200
 1,0.00721996,0.00531029,0.07787872,-0.06324738,-0.02510380,0.01630334,
 -0.00022390,-0.00837143,-0.00002593,0.00009942,-0.00005045,0.00000936,
 -0.00015256,0.00010869,0.00012007,-0.00009601,-0.00014612,-0.00009984,
 0.00001570,-0.00006304,0.00000051,0.00000067,-0.00000046,0.00001324,0.
 00000802,0.00001100,0.00002306,0.00001569,0.00000550,0.00000502,0.0000
 1644,0.00001469,0.00006845,0.00006772,0.00001539,-0.00156225,-0.001601
 54,-0.00122767,-0.08643719,0.05629331,-0.00036487,-0.00027106,-0.00004
 714,0.00021486,-0.00000317,0.00003972,-0.00031291,-0.00007720,-0.00070
 410,-0.00015269,0.00033266,-0.00012518,-0.00068165,0.00014068,0.000439
 86,-0.00133154,0.00346372,-0.00034356,0.00147726,0.00475716,-0.0037082
 1,0.02588814,-0.00852660,-0.00569328,0.11067058,-0.02498691,-0.1023687
 3,-0.01497214,0.00520996,0.00999021,0.00013632,-0.00012894,0.00014461,
 -0.00004032,0.00015762,-0.00034666,-0.00038421,0.00009406,0.00018039,0
 .00019251,-0.00016918,0.00002698,-0.00000227,0.00000307,-0.00000120,0.
 00000092,0.00001148,-0.00000125,0.00000139,0.00000534,0.00002003,0.000
 00859,0.00000961,-0.00000375,-0.00002843,0.00005350,0.00004434,-0.0003
 5118,-0.00147945,0.00021781,-0.11995261,0.02352107,0.10270894,0.000273
 26,-0.00117652,-0.00207358,0.00011312,-0.00030902,0.00013372,0.0080608
 5,0.00643340,-0.01732598,0.00013108,0.00020652,-0.00000525,0.00059892,
 0.00023280,-0.00065689,-0.00135395,0.00457268,-0.00056995,-0.06810575,
 -0.01421202,0.06572928,-0.00131976,-0.00975626,0.02612974,-0.00380491,
 0.00363201,0.00228951,-0.00048492,0.00030192,-0.00037546,-0.00011462,0
 .00010838,0.00001661,0.00006860,-0.00010778,0.00008541,0.00001952,0.00
 004724,-0.00005419,0.00003463,-0.00002659,0.00009101,-0.00004950,0.000
 00583,0.00000665,0.00001145,0.00000315,0.00000845,0.00000224,-0.000003
 34,0.00000387,-0.00002408,-0.00005994,-0.00000881,-0.00015371,0.000142
 30,0.00051552,-0.00000084,-0.00015984,-0.00002760,-0.00026119,-0.00052
 775,0.00122701,0.06647653,-0.00262101,-0.00193814,-0.00071284,-0.00000
 610,-0.00014272,-0.00029715,-0.00548913,-0.00138656,0.01632000,0.00017
 503,0.00037200,0.00010311,-0.00048838,0.00026278,0.00085249,0.00507727
 ,0.00219204,0.00274788,-0.01441984,-0.07536899,0.09883488,0.00316865,0
 .00708101,-0.00795316,0.00329140,0.00305906,0.00040877,0.00022974,-0.0
 0037084,-0.00006429,0.00006017,-0.00001941,0.00009945,-0.00001960,0.00
 003169,-0.00008657,-0.00000442,0.00001915,0.00004685,0.00003298,0.0000
 8406,-0.00004629,0.00002117,-0.00003747,-0.00002779,0.00000788,0.00001
 705,0.00001124,0.,0.00000172,-0.00000081,-0.00006301,-0.00007234,-0.00
 006079,0.00069367,0.00029824,-0.00022600,-0.00015858,-0.00019564,-0.00
 007525,0.00009340,0.00008716,-0.00045215,0.01212910,0.06854846,0.00069
 173,-0.00230097,0.00004841,-0.00043742,0.00002454,0.00013663,0.0063451
 8,0.00333871,-0.00968463,0.00009678,0.00005458,0.00027593,0.00079970,0
 .00004368,-0.00053173,-0.00155660,0.00331794,0.00156181,0.06637775,0.0
 9873083,-0.30195984,0.00023575,0.00602675,-0.00746653,0.00293984,0.000
 06632,0.00174519,-0.00020743,-0.00015571,0.00024530,0.00008261,0.00004
 072,-0.00012410,-0.00006469,0.00000919,0.00003900,0.00002822,-0.000002
 54,0.00001742,-0.00001179,0.00001107,0.00005927,-0.00003354,-0.0000043
 2,0.00001364,0.00000182,0.00001400,-0.00000339,-0.00000157,0.00000193,
 -0.00000082,-0.00000911,-0.00005862,-0.00001222,-0.00056023,0.00036887
 ,0.00044966,-0.00003114,-0.00007628,-0.00013908,-0.00000283,0.00022079
 ,-0.00051537,-0.07378114,-0.10813891,0.31590190,-0.00018410,0.00062828
 ,-0.00107688,-0.00038109,0.00021659,0.00038538,-0.00245546,0.00199778,
 0.00408119,0.00007955,0.00006551,0.00008344,-0.00017029,-0.00029897,-0
 .00026197,-0.00040801,-0.00063697,0.00044320,-0.01141732,0.01630236,-0
 .01550815,-0.17285764,0.12082138,-0.09202222,0.00851940,-0.00493907,0.
 00603811,0.00182631,0.00134662,0.00313892,0.00007281,-0.00005643,-0.00
 006873,-0.00009758,0.00010086,-0.00017446,-0.00016943,-0.00000326,0.00
 011833,0.00009023,-0.00000301,-0.00006220,0.00000998,0.00000259,0.0000
 1261,-0.00000910,0.00002290,0.00000126,-0.00000656,0.00001179,0.000008
 83,0.00000264,-0.00000010,-0.00000147,-0.00003668,-0.00002429,0.000026
 07,0.00025966,-0.00033042,0.00028072,-0.00023134,-0.00168702,-0.001223
 19,0.00025906,-0.00150852,-0.00055518,0.17729851,-0.00014712,-0.000156
 92,0.00036155,0.00023393,0.00021175,0.00001022,0.00242075,0.00369520,0
 .00014942,0.00017156,0.00013520,0.00006988,-0.00042724,-0.00055386,-0.
 00034420,-0.00051546,-0.00066306,-0.00046305,0.00364086,-0.00039527,0.
 00551529,0.12065142,-0.14780792,0.09740539,0.00793103,-0.00098957,0.00
 333383,0.00106917,0.00483182,0.00376243,0.00003748,-0.00009552,-0.0000
 0434,-0.00012384,0.00000732,-0.00005729,-0.00005418,-0.00009279,0.0000
 6686,0.00007644,0.00001268,-0.00000274,0.00000739,0.00001808,0.0000076
 1,0.00002333,0.00001570,0.00000529,0.00001170,0.00001141,0.00000654,-0
 .00000248,0.00000139,0.00000190,-0.00001606,-0.00002820,-0.00002613,0.
 00029263,-0.00030408,0.00012087,-0.00192806,-0.00264840,-0.00166527,-0
 .00129097,-0.00170105,-0.00133886,-0.13209414,0.14641985,0.00038650,-0
 .00044618,0.00037664,0.00031909,0.00001830,-0.00005370,0.00335441,0.00
 056177,0.00032451,-0.00010008,0.00018469,0.00001599,-0.00005672,-0.000
 42190,-0.00004357,0.00013141,-0.00037978,-0.00054513,0.00992954,-0.008
 15709,0.00991249,-0.09201077,0.09736512,-0.12933263,-0.01954967,0.0172
 1238,-0.00832184,0.00388006,0.00331475,-0.00346270,-0.00022994,0.00009
 651,-0.00000095,0.00023206,-0.00028910,0.00018765,0.00016276,0.0000268
 1,-0.00032521,-0.00017991,0.00006902,0.00012403,0.00000682,0.00001189,
 -0.00000275,0.00000102,0.00000567,0.00001980,0.00000845,0.00000595,-0.
 00000057,0.00000402,-0.00000153,-0.00000141,0.00001069,-0.00001568,-0.
 00002779,-0.00094770,0.00079158,-0.00063564,-0.00073027,-0.00191897,0.
 00008034,-0.00102142,-0.00108152,0.00020909,0.09634575,-0.10695606,0.1
 3145796,-0.00056699,0.00037961,-0.00003751,-0.00312538,0.00396428,0.00
 150753,-0.00142742,0.00384522,-0.00050726,-0.00129121,-0.00919130,0.02
 457986,-0.07002669,-0.01491963,0.07107031,0.00823256,0.00700394,-0.017
 34917,0.00043687,0.00023744,-0.00087393,0.00015464,0.00018692,0.000028
 05,-0.00015749,-0.00022145,0.00023611,0.00059539,-0.00090101,-0.002007
 10,0.00015152,-0.00075237,0.00134006,0.00017723,0.00016933,0.00001752,
 -0.00012389,0.00006603,-0.00038975,0.00048638,-0.00218538,0.00051934,-
 0.00056335,-0.00025508,-0.00001935,0.00002009,0.00007126,-0.00002753,-
 0.00003304,-0.00001351,0.00001007,-0.00013348,0.00069834,-0.00054211,0
 .00012452,0.00004333,0.00007584,-0.00016285,0.00014140,0.00053711,-0.0
 0001165,-0.00001505,-0.00001957,-0.00037604,-0.00020185,-0.00034669,0.
 00000643,0.00003187,0.00005391,0.06761386,0.00038187,-0.00017040,0.000
 00854,0.00324186,0.00263831,0.00069659,0.00454948,0.00130261,0.0020375
 2,0.00354419,0.00678006,-0.00772502,-0.01495018,-0.07378041,0.09700148
 ,-0.00567855,-0.00092678,0.01741821,-0.00064058,-0.00005745,0.00093281
 ,0.00015797,0.00037067,0.00005794,0.00005611,-0.00022420,-0.00030033,-
 0.00214010,-0.00127934,-0.00058477,0.00013177,0.00017121,-0.00037415,0
 .00019473,0.00035071,0.00006902,-0.00020730,-0.00025344,0.00006148,-0.
 00095485,-0.00116838,-0.00205044,-0.00027419,-0.00066835,-0.00039934,0
 .00003793,0.00006511,0.00005126,-0.00002196,-0.00002959,-0.00001901,0.
 00015327,0.00027989,0.00038655,0.00004396,0.00018422,0.00011321,0.0006
 8282,0.00030543,-0.00023418,-0.00000619,-0.00004696,0.00000002,-0.0001
 8529,-0.00082128,-0.00019368,0.00006555,0.00007624,0.00000337,0.011817
 67,0.06690215,-0.00003252,0.00001664,0.00004313,0.00283930,-0.00011795
 ,0.00191527,-0.00188190,0.00277677,0.00157155,0.00018294,0.00656439,-0
 .00804700,0.07084546,0.09665210,-0.29898513,0.00723900,0.00343036,-0.0
 0986841,0.00083021,-0.00005252,-0.00077780,0.00004428,0.00005914,0.000
 35727,-0.00032538,-0.00000335,0.00000455,0.00049450,-0.00191519,0.0004
 2759,-0.00036700,0.00061098,-0.00072878,0.00000902,0.00007874,0.000355
 31,0.00014917,-0.00027368,-0.00000653,-0.00187727,-0.00055285,0.000440
 40,-0.00003304,-0.00039394,-0.00023222,0.00003745,0.00001565,0.0000435
 7,0.00002690,-0.00002755,-0.00002964,0.00052054,-0.00024245,0.00044879
 ,0.00007889,0.00011772,-0.00004256,-0.00054310,0.00036365,0.00045173,-
 0.00003581,0.00001070,-0.00003481,-0.00033653,-0.00020115,-0.00026555,
 -0.00000937,0.00004087,0.00004539,-0.07785575,-0.10695708,0.31291386\\
 -0.00208901,-0.00211477,0.00656792,0.01412147,0.00119594,-0.01843937,-
 0.00366876,0.01208573,-0.01968578,0.00357551,-0.01225169,0.01958540,0.
 00226781,0.00236394,-0.00705580,-0.01451352,-0.00130116,0.01867600,-0.
 00288205,-0.00214879,0.00709120,-0.00626586,-0.00201718,0.01104357,-0.
 00059598,0.00598237,-0.01109542,0.00102046,0.00310503,-0.00753192,-0.0
 0094556,-0.00327385,0.00707593,0.00060413,-0.00635814,0.01170488,0.006
 17783,0.00225356,-0.01135925,0.00297961,0.00188243,-0.00745629,-0.0011
 5611,0.00278021,-0.00374756,0.00410355,-0.00144987,-0.00165159,0.00325
 746,-0.00301135,0.00229979,-0.00316710,0.00019213,0.00354322,0.0008305
 8,0.00103697,-0.00277142,0.00125955,-0.00251822,0.00378670,-0.00406856
 ,0.00153308,0.00178937,0.00326601,0.00005616,-0.00346623,-0.00325626,0
 .00302397,-0.00213935,-0.00085519,-0.00104648,0.00323602\\\@
 The archive entry for this job was punched.


 Change starts when someone sees the next step.
                            -- William Drayton
 Job cpu time:       2 days 21 hours 25 minutes  0.5 seconds.
 Elapsed time:       0 days  2 hours 14 minutes 51.8 seconds.
 File lengths (MBytes):  RWF=   1865 Int=      0 D2E=      0 Chk=    201 Scr=      1
 Normal termination of Gaussian 16 at Mon Jul 15 15:58:22 2024.
