 Entering Gaussian System, Link 0=g16
 Initial command:
 /curc/sw/gaussian/16/g16/l1.exe "/gpfs/alpine1/scratch/sile6618/Gaussian/anthracene_bend/CAM-B3LYP/6-311_basis/Gau-590368.inp" -scrdir="/gpfs/alpine1/scratch/sile6618/Gaussian/anthracene_bend/CAM-B3LYP/6-311_basis/"
 Entering Link 1 = /curc/sw/gaussian/16/g16/l1.exe PID=    590369.
  
 Copyright (c) 1988,1990,1992,1993,1995,1998,2003,2009,2016,
            Gaussian, Inc.  All Rights Reserved.
  
 This is part of the Gaussian(R) 16 program.  It is based on
 the Gaussian(R) 09 system (copyright 2009, Gaussian, Inc.),
 the Gaussian(R) 03 system (copyright 2003, Gaussian, Inc.),
 the Gaussian(R) 98 system (copyright 1998, Gaussian, Inc.),
 the Gaussian(R) 94 system (copyright 1995, Gaussian, Inc.),
 the Gaussian 92(TM) system (copyright 1992, Gaussian, Inc.),
 the Gaussian 90(TM) system (copyright 1990, Gaussian, Inc.),
 the Gaussian 88(TM) system (copyright 1988, Gaussian, Inc.),
 the Gaussian 86(TM) system (copyright 1986, Carnegie Mellon
 University), and the Gaussian 82(TM) system (copyright 1983,
 Carnegie Mellon University). Gaussian is a federally registered
 trademark of Gaussian, Inc.
  
 This software contains proprietary and confidential information,
 including trade secrets, belonging to Gaussian, Inc.
  
 This software is provided under written license and may be
 used, copied, transmitted, or stored only in accord with that
 written license.
  
 The following legend is applicable only to US Government
 contracts under FAR:
  
                    RESTRICTED RIGHTS LEGEND
  
 Use, reproduction and disclosure by the US Government is
 subject to restrictions as set forth in subparagraphs (a)
 and (c) of the Commercial Computer Software - Restricted
 Rights clause in FAR 52.227-19.
  
 Gaussian, Inc.
 340 Quinnipiac St., Bldg. 40, Wallingford CT 06492
  
  
 ---------------------------------------------------------------
 Warning -- This program may not be used in any manner that
 competes with the business of Gaussian, Inc. or will provide
 assistance to any competitor of Gaussian, Inc.  The licensee
 of this program is prohibited from giving any competitor of
 Gaussian, Inc. access to this program.  By using this program,
 the user acknowledges that Gaussian, Inc. is engaged in the
 business of creating and licensing software in the field of
 computational chemistry and represents and warrants to the
 licensee that it is not a competitor of Gaussian, Inc. and that
 it will not use this program in any manner prohibited above.
 ---------------------------------------------------------------
  

 Cite this work as:
 Gaussian 16, Revision A.03,
 M. J. Frisch, G. W. Trucks, H. B. Schlegel, G. E. Scuseria, 
 M. A. Robb, J. R. Cheeseman, G. Scalmani, V. Barone, 
 G. A. Petersson, H. Nakatsuji, X. Li, M. Caricato, A. V. Marenich, 
 J. Bloino, B. G. Janesko, R. Gomperts, B. Mennucci, H. P. Hratchian, 
 J. V. Ortiz, A. F. Izmaylov, J. L. Sonnenberg, D. Williams-Young, 
 F. Ding, F. Lipparini, F. Egidi, J. Goings, B. Peng, A. Petrone, 
 T. Henderson, D. Ranasinghe, V. G. Zakrzewski, J. Gao, N. Rega, 
 G. Zheng, W. Liang, M. Hada, M. Ehara, K. Toyota, R. Fukuda, 
 J. Hasegawa, M. Ishida, T. Nakajima, Y. Honda, O. Kitao, H. Nakai, 
 T. Vreven, K. Throssell, J. A. Montgomery, Jr., J. E. Peralta, 
 F. Ogliaro, M. J. Bearpark, J. J. Heyd, E. N. Brothers, K. N. Kudin, 
 V. N. Staroverov, T. A. Keith, R. Kobayashi, J. Normand, 
 K. Raghavachari, A. P. Rendell, J. C. Burant, S. S. Iyengar, 
 J. Tomasi, M. Cossi, J. M. Millam, M. Klene, C. Adamo, R. Cammi, 
 J. W. Ochterski, R. L. Martin, K. Morokuma, O. Farkas, 
 J. B. Foresman, and D. J. Fox, Gaussian, Inc., Wallingford CT, 2016.
 
 ******************************************
 Gaussian 16:  ES64L-G16RevA.03 25-Dec-2016
                11-Apr-2024 
 ******************************************
 %Chk=tddft
 ----------------------------------------
 # CAM-B3LYP/6-311+G(2d,p) TD(NStates=10)
 ----------------------------------------
 1/38=1,172=1/1;
 2/12=2,17=6,18=5,40=1/2;
 3/5=4,6=6,7=112,11=9,25=1,30=1,74=-40/1,2,3,8;
 4//1;
 5/5=2,38=5/2;
 8/6=1,10=2,108=10/1;
 9/41=10,42=1,70=2/14;
 6/7=2,8=2,9=2,10=2/1;
 99/5=1,9=1/99;
 ---------------------------------------------------------
 TD-DFT excited state calculation: CAM-B3LYP/6-311+G(2d,p)
 ---------------------------------------------------------
 Symbolic Z-matrix:
 Charge =  0 Multiplicity = 1
 C                     10.70051   5.44882   23.71103 
 C                     9.86535   6.36033   23.06568 
 C                     11.92708   5.09157   23.15315 
 C                     10.20494   6.81277   21.73154 
 C                     11.36552   6.33847   21.05453 
 C                     12.28918   5.58033   21.83391 
 C                     12.86133   4.31545   23.9032 
 C                     14.13694   4.09733   23.44877 
 C                     14.53031   4.64821   22.20398 
 C                     13.6257   5.33579   21.43452 
 C                     8.71898   6.89515   23.72297 
 C                     7.97054   7.8934    23.15017 
 C                     8.32225   8.3755    21.86646 
 C                     9.37377   7.81691   21.18403 
 H                     8.47903   6.52006   24.71974 
 H                     7.118     8.32084   23.67852 
 H                     7.74314   9.17777   21.40694 
 H                     9.62716   8.17517   20.18813 
 H                     10.4301   5.07732   24.70245 
 H                     13.95536   5.76717   20.4966 
 H                     15.55371   4.52044   21.84723 
 H                     12.54422   3.93771   24.87737 
 H                     14.8505   3.52914   24.04618 
 H                     11.6372   6.71833   20.07691 
 
                          Input orientation:                          
 ---------------------------------------------------------------------
 Center     Atomic      Atomic             Coordinates (Angstroms)
 Number     Number       Type             X           Y           Z
 ---------------------------------------------------------------------
      1          6           0       10.700510    5.448820   23.711030
      2          6           0        9.865350    6.360330   23.065680
      3          6           0       11.927080    5.091570   23.153150
      4          6           0       10.204940    6.812770   21.731540
      5          6           0       11.365520    6.338470   21.054530
      6          6           0       12.289180    5.580330   21.833910
      7          6           0       12.861330    4.315450   23.903200
      8          6           0       14.136940    4.097330   23.448770
      9          6           0       14.530310    4.648210   22.203980
     10          6           0       13.625700    5.335790   21.434520
     11          6           0        8.718980    6.895150   23.722970
     12          6           0        7.970540    7.893400   23.150170
     13          6           0        8.322250    8.375500   21.866460
     14          6           0        9.373770    7.816910   21.184030
     15          1           0        8.479030    6.520060   24.719740
     16          1           0        7.118000    8.320840   23.678520
     17          1           0        7.743140    9.177770   21.406940
     18          1           0        9.627160    8.175170   20.188130
     19          1           0       10.430100    5.077320   24.702450
     20          1           0       13.955360    5.767170   20.496600
     21          1           0       15.553710    4.520440   21.847230
     22          1           0       12.544220    3.937710   24.877370
     23          1           0       14.850500    3.529140   24.046180
     24          1           0       11.637200    6.718330   20.076910
 ---------------------------------------------------------------------
                    Distance matrix (angstroms):
                    1          2          3          4          5
     1  C    0.000000
     2  C    1.394568   0.000000
     3  C    1.394034   2.422423   0.000000
     4  C    2.454451   1.449121   2.819445   0.000000
     5  C    2.879359   2.509126   2.504858   1.424868   0.000000
     6  C    2.462671   2.828535   1.452721   2.423519   1.426659
     7  C    2.447570   3.722750   1.427501   4.243716   3.800655
     8  C    3.701940   4.849166   2.441185   5.077708   4.293700
     9  C    4.192797   5.043385   2.806118   4.859768   3.767507
    10  C    3.708370   4.224997   2.428712   3.737819   2.501634
    11  C    2.453258   1.425562   3.724178   2.486093   3.799294
    12  C    3.707192   2.438800   4.848141   2.858814   4.281986
    13  C    4.198097   2.807169   5.043269   2.450480   3.751028
    14  C    3.708614   2.429791   4.221884   1.413827   2.483873
    15  H    2.664587   2.164096   4.047695   3.463204   4.668893
    16  H    4.591724   3.430321   5.816481   3.948950   5.371828
    17  H    5.287716   3.897841   6.103412   3.429147   4.616000
    18  H    4.582127   3.410377   4.856909   2.138242   2.673202
    19  H    1.092725   2.155011   2.154410   3.448012   3.971502
    20  H    4.585625   4.866230   3.409929   4.084606   2.710155
    21  H    5.281022   6.101414   3.896673   5.820438   4.634063
    22  H    2.653878   4.040749   2.164530   4.861527   4.665521
    23  H    4.584748   5.816248   3.432940   6.141743   5.383994
    24  H    3.961802   3.492902   3.491938   2.190454   1.083441
                    6          7          8          9         10
     6  C    0.000000
     7  C    2.491834   0.000000
     8  C    2.867277   1.371592   0.000000
     9  C    2.455293   2.404906   1.416937   0.000000
    10  C    1.416191   2.778441   2.419164   1.372281   0.000000
    11  C    4.247779   4.883277   6.103874   6.413082   5.634226
    12  C    5.072818   6.106440   7.247330   7.379506   6.439383
    13  C    4.852893   6.421492   7.390336   7.248905   6.128050
    14  C    3.731521   5.640672   6.453845   6.137659   4.929261
    15  H    4.871175   4.973087   6.284658   6.815487   6.219596
    16  H    6.136292   7.005674   8.194897   8.402667   7.503081
    17  H    5.812947   7.487946   8.417875   8.198650   7.026100
    18  H    4.065481   6.257718   6.899179   6.367415   5.060029
    19  H    3.455100   2.670230   4.033951   4.820603   4.577994
    20  H    2.144636   3.861258   3.396564   2.120798   1.083724
    21  H    3.432302   3.393810   2.179722   1.091303   2.133623
    22  H    3.467837   1.091904   2.145491   3.405345   3.870070
    23  H    3.957509   2.143717   1.090370   2.179115   3.403658
    24  H    2.192526   4.681113   4.948513   4.144865   2.776446
                   11         12         13         14         15
    11  C    0.000000
    12  C    1.372868   0.000000
    13  C    2.407376   1.415638   0.000000
    14  C    2.779318   2.416736   1.372380   0.000000
    15  H    1.091705   2.146666   3.407117   3.870869   0.000000
    16  H    2.144226   1.090267   2.176412   3.400724   2.485830
    17  H    3.395087   2.177193   1.090946   2.135552   4.310406
    18  H    3.867601   3.405505   2.135349   1.088289   4.959141
    19  H    2.681757   4.048372   4.833618   4.582627   2.426617
    20  H    6.253117   6.883339   6.357030   5.066060   6.956432
    21  H    7.474703   8.401130   8.194869   7.035496   7.893091
    22  H    4.971071   6.288820   6.825290   6.224203   4.818625
    23  H    7.002144   8.196551   8.417626   7.521399   7.070708
    24  H    4.673438   4.926471   4.115531   2.748765   5.618649
                   16         17         18         19         20
    16  H    0.000000
    17  H    2.507031   0.000000
    18  H    4.301154   2.457689   0.000000
    19  H    4.747511   5.907100   5.533577   0.000000
    20  H    7.962119   7.145109   4.962553   5.531051   0.000000
    21  H    9.431748   9.104372   7.157769   5.891840   2.435828
    22  H    7.077636   7.909013   6.960911   2.408072   4.952715
    23  H    9.104236   9.454479   7.984574   4.729428   4.290638
    24  H    5.996899   4.793905   2.484957   5.054268   2.540612
                   21         22         23         24
    21  H    0.000000
    22  H    4.310261   0.000000
    23  H    2.512481   2.485304   0.000000
    24  H    4.827401   5.621294   6.020908   0.000000
 Stoichiometry    C14H10
 Framework group  C1[X(C14H10)]
 Deg. of freedom    66
 Full point group                 C1      NOp   1
 Largest Abelian subgroup         C1      NOp   1
 Largest concise Abelian subgroup C1      NOp   1
                         Standard orientation:                         
 ---------------------------------------------------------------------
 Center     Atomic      Atomic             Coordinates (Angstroms)
 Number     Number       Type             X           Y           Z
 ---------------------------------------------------------------------
      1          6           0        0.003909   -1.386121   -0.212101
      2          6           0       -1.210358   -0.703665   -0.144058
      3          6           0        1.211926   -0.691853   -0.167177
      4          6           0       -1.213969    0.744744   -0.189345
      5          6           0       -0.007007    1.491335   -0.316201
      6          6           0        1.209397    0.760865   -0.167429
      7          6           0        2.445383   -1.399071   -0.039951
      8          6           0        3.627842   -0.739729    0.179876
      9          6           0        3.623167    0.674086    0.273760
     10          6           0        2.460023    1.376642    0.082277
     11          6           0       -2.437403   -1.408471    0.028669
     12          6           0       -3.619282   -0.741020    0.234674
     13          6           0       -3.625656    0.674596    0.239256
     14          6           0       -2.468446    1.370459   -0.005835
     15          1           0       -2.403751   -2.499602    0.039612
     16          1           0       -4.545442   -1.291099    0.402971
     17          1           0       -4.556336    1.215878    0.415357
     18          1           0       -2.481862    2.458522   -0.023538
     19          1           0        0.009443   -2.478829   -0.214432
     20          1           0        2.476473    2.455735    0.180991
     21          1           0        4.547724    1.211807    0.490543
     22          1           0        2.413486   -2.489925   -0.075642
     23          1           0        4.558284   -1.293911    0.306623
     24          1           0       -0.015171    2.574638   -0.300964
 ---------------------------------------------------------------------
 Rotational constants (GHZ):           2.0859008           0.4578030           0.3791735
 Standard basis: 6-311+G(2d,p) (5D, 7F)
 There are   466 symmetry adapted cartesian basis functions of A   symmetry.
 There are   438 symmetry adapted basis functions of A   symmetry.
   438 basis functions,   668 primitive gaussians,   466 cartesian basis functions
    47 alpha electrons       47 beta electrons
       nuclear repulsion energy       766.4648408551 Hartrees.
 NAtoms=   24 NActive=   24 NUniq=   24 SFac= 1.00D+00 NAtFMM=   60 NAOKFM=F Big=F
 Integral buffers will be    131072 words long.
 Raffenetti 1 integral format.
 Two-electron integral symmetry is turned on.
 One-electron integrals computed using PRISM.
 NBasis=   438 RedAO= T EigKep=  1.18D-06  NBF=   438
 NBsUse=   434 1.00D-06 EigRej=  7.15D-07 NBFU=   434
 ExpMin= 4.38D-02 ExpMax= 4.56D+03 ExpMxC= 6.82D+02 IAcc=3 IRadAn=         5 AccDes= 0.00D+00
 Harris functional with IExCor=20419 and IRadAn=       5 diagonalized for initial guess.
 HarFok:  IExCor=20419 AccDes= 0.00D+00 IRadAn=         5 IDoV= 1 UseB2=F ITyADJ=14
 ICtDFT=  3500011 ScaDFX=  1.000000  1.000000  1.000000  1.000000
 FoFCou: FMM=F IPFlag=           0 FMFlag=      100000 FMFlg1=           0
         NFxFlg=           0 DoJE=T BraDBF=F KetDBF=T FulRan=T
         wScrn=  0.000000 ICntrl=       500 IOpCl=  0 I1Cent=   200000004 NGrid=           0
         NMat0=    1 NMatS0=      1 NMatT0=    0 NMatD0=    1 NMtDS0=    0 NMtDT0=    0
 Petite list used in FoFCou.
 Requested convergence on RMS density matrix=1.00D-08 within 128 cycles.
 Requested convergence on MAX density matrix=1.00D-06.
 Requested convergence on             energy=1.00D-06.
 No special actions if energy rises.
 SCF Done:  E(RCAM-B3LYP) =  -539.343355478     A.U. after   14 cycles
            NFock= 14  Conv=0.44D-08     -V/T= 2.0043
 DoSCS=F DFT=T ScalE2(SS,OS)=  1.000000  1.000000
 ExpMin= 4.38D-02 ExpMax= 4.56D+03 ExpMxC= 6.82D+02 IAcc=3 IRadAn=         5 AccDes= 0.00D+00
 HarFok:  IExCor=  205 AccDes= 0.00D+00 IRadAn=         5 IDoV=-2 UseB2=F ITyADJ=14
 ICtDFT= 12500011 ScaDFX=  1.000000  1.000000  1.000000  1.000000
 Range of M.O.s used for correlation:    15   434
 NBasis=   438 NAE=    47 NBE=    47 NFC=    14 NFV=     0
 NROrb=    420 NOA=    33 NOB=    33 NVA=   387 NVB=   387

 **** Warning!!: The largest alpha MO coefficient is  0.18066147D+03

 Orbital symmetries:
       Occupied  (A) (A) (A) (A) (A) (A) (A) (A) (A) (A) (A) (A)
                 (A) (A) (A) (A) (A) (A) (A) (A) (A) (A) (A) (A)
                 (A) (A) (A) (A) (A) (A) (A) (A) (A) (A) (A) (A)
                 (A) (A) (A) (A) (A) (A) (A) (A) (A) (A) (A)
       Virtual   (A) (A) (A) (A) (A) (A) (A) (A) (A) (A) (A) (A)
                 (A) (A) (A) (A) (A) (A) (A) (A) (A) (A) (A) (A)
                 (A) (A) (A) (A) (A) (A) (A) (A) (A) (A) (A) (A)
                 (A) (A) (A) (A) (A) (A) (A) (A) (A) (A) (A) (A)
                 (A) (A) (A) (A) (A) (A) (A) (A) (A) (A) (A) (A)
                 (A) (A) (A) (A) (A) (A) (A) (A) (A) (A) (A) (A)
                 (A) (A) (A) (A) (A) (A) (A) (A) (A) (A) (A) (A)
                 (A) (A) (A) (A) (A) (A) (A) (A) (A) (A) (A) (A)
                 (A) (A) (A) (A) (A) (A) (A) (A) (A) (A) (A) (A)
                 (A) (A) (A) (A) (A) (A) (A) (A) (A) (A) (A) (A)
                 (A) (A) (A) (A) (A) (A) (A) (A) (A) (A) (A) (A)
                 (A) (A) (A) (A) (A) (A) (A) (A) (A) (A) (A) (A)
                 (A) (A) (A) (A) (A) (A) (A) (A) (A) (A) (A) (A)
                 (A) (A) (A) (A) (A) (A) (A) (A) (A) (A) (A) (A)
                 (A) (A) (A) (A) (A) (A) (A) (A) (A) (A) (A) (A)
                 (A) (A) (A) (A) (A) (A) (A) (A) (A) (A) (A) (A)
                 (A) (A) (A) (A) (A) (A) (A) (A) (A) (A) (A) (A)
                 (A) (A) (A) (A) (A) (A) (A) (A) (A) (A) (A) (A)
                 (A) (A) (A) (A) (A) (A) (A) (A) (A) (A) (A) (A)
                 (A) (A) (A) (A) (A) (A) (A) (A) (A) (A) (A) (A)
                 (A) (A) (A) (A) (A) (A) (A) (A) (A) (A) (A) (A)
                 (A) (A) (A) (A) (A) (A) (A) (A) (A) (A) (A) (A)
                 (A) (A) (A) (A) (A) (A) (A) (A) (A) (A) (A) (A)
                 (A) (A) (A) (A) (A) (A) (A) (A) (A) (A) (A) (A)
                 (A) (A) (A) (A) (A) (A) (A) (A) (A) (A) (A) (A)
                 (A) (A) (A) (A) (A) (A) (A) (A) (A) (A) (A) (A)
                 (A) (A) (A) (A) (A) (A) (A) (A) (A) (A) (A) (A)
                 (A) (A) (A) (A) (A) (A) (A) (A) (A) (A) (A) (A)
                 (A) (A) (A) (A) (A) (A) (A) (A) (A) (A) (A) (A)
                 (A) (A) (A) (A) (A) (A) (A) (A) (A) (A) (A) (A)
                 (A) (A) (A) (A) (A) (A) (A) (A) (A) (A) (A) (A)
                 (A) (A) (A) (A) (A) (A) (A) (A) (A) (A) (A) (A)
                 (A) (A) (A)
    40 initial guesses have been made.
 Convergence on wavefunction:    0.001000000000000
 Iteration     1 Dimension    40 NMult     0 NNew     40
 CISAX will form    40 AO SS matrices at one time.
 New state      3 was old state      7
 New state      5 was old state      9
 New state      6 was old state      5
 New state      7 was old state      6
 New state      9 was old state     21
 New state     10 was old state      3
 Iteration     2 Dimension    60 NMult    40 NNew     20
 New state      3 was old state      8
 New state      4 was old state      3
 New state      5 was old state     10
 New state      6 was old state      4
 New state      7 was old state      5
 New state      8 was old state      6
 New state      9 was old state      7
 New state     10 was old state      9
 Iteration     3 Dimension    80 NMult    60 NNew     20
 Iteration     4 Dimension   100 NMult    80 NNew     20
 Iteration     5 Dimension   116 NMult   100 NNew     16
 Iteration     6 Dimension   124 NMult   116 NNew      8
 Iteration     7 Dimension   128 NMult   124 NNew      4
 ***********************************************************************
 Excited states from <AA,BB:AA,BB> singles matrix:
 ***********************************************************************
 
 Ground to excited state transition densities written to RWF  633
 Ground to excited state transition electric dipole moments (Au):
       state          X           Y           Z        Dip. S.      Osc.
         1        -0.0230      0.9507     -0.0369      0.9057      0.0749
         2         0.1577     -0.0002     -0.0004      0.0249      0.0024
         3         0.4858      0.0024     -0.0239      0.2366      0.0292
         4        -1.3038     -0.0174     -0.0008      1.7001      0.2175
         5         3.6772      0.0134      0.0043     13.5218      1.7408
         6        -0.1680      0.0782      0.0663      0.0387      0.0050
         7        -0.0754     -0.0471     -0.0115      0.0080      0.0011
         8        -0.0329      0.0074     -0.1078      0.0128      0.0017
         9        -0.2996     -0.0071      0.0061      0.0899      0.0125
        10        -0.0346     -0.0362      0.0050      0.0025      0.0004
 Ground to excited state transition velocity dipole moments (Au):
       state          X           Y           Z        Dip. S.      Osc.
         1         0.0028     -0.1224      0.0046      0.0150      0.0807
         2        -0.0217      0.0000      0.0001      0.0005      0.0022
         3        -0.0896     -0.0005      0.0045      0.0080      0.0290
         4         0.2508      0.0034      0.0000      0.0629      0.2186
         5        -0.7110     -0.0026     -0.0009      0.5055      1.7451
         6         0.0329     -0.0155     -0.0127      0.0015      0.0051
         7         0.0148      0.0095      0.0022      0.0003      0.0011
         8         0.0067     -0.0002      0.0209      0.0005      0.0016
         9         0.0617      0.0015     -0.0013      0.0038      0.0122
        10         0.0073      0.0080     -0.0011      0.0001      0.0004
 Ground to excited state transition magnetic dipole moments (Au):
       state          X           Y           Z
         1         0.2357      0.0327     -0.0119
         2         0.0092      0.0204     -0.0702
         3         0.0043      0.0244      1.4340
         4        -0.0365     -0.1714     -1.1482
         5        -0.0098      0.4779     -0.5912
         6         0.2471      0.0103     -0.1830
         7         0.1156     -0.0313     -0.0240
         8        -0.0207     -0.0013     -0.0183
         9        -0.0041     -0.0047     -0.2044
        10         0.0329     -0.0129     -0.0213
 Ground to excited state transition velocity quadrupole moments (Au):
       state          XX          YY          ZZ          XY          XZ          YZ
         1         0.0599     -0.0195     -0.0096      0.0004     -0.0045      0.0863
         2        -0.0041     -0.0004      0.0010     -0.0104     -0.0167      0.0050
         3        -0.0224      0.0079     -0.0004      0.7869     -0.0218      0.0013
         4         0.0324     -0.0124     -0.0042     -0.3792      0.0963      0.0054
         5        -0.0108      0.0029     -0.0007     -0.2218     -0.2900     -0.0189
         6        -0.1296      0.0388      0.0376     -0.0665     -0.0059     -0.0195
         7         0.0539     -0.0581      0.0412     -0.0106      0.0131      0.2138
         8        -0.1266     -0.0197      0.0904     -0.0133      0.0020     -0.0359
         9        -0.0120      0.0345     -0.0330      0.0349      0.0159      0.0055
        10        -0.1078      0.1160      0.0022     -0.0005      0.0121      0.0128
 <0|del|b> * <b|rxdel|0> + <0|del|b> * <b|delr+rdel|0>
 Rotatory Strengths (R) in cgs (10**-40 erg-esu-cm/Gauss)
       state          XX          YY          ZZ    R(velocity)    E-M Angle
         1       -13.1143      2.4504     -8.6127     -6.4255       96.65
         2        -0.0117     -0.7640     -0.2247     -0.3335       97.30
         3        19.0954      4.6333     -0.5170      7.7373       87.30
         4        -1.6987    -14.3991    -19.8005    -11.9661       91.92
         5        -2.3079     37.9300    -12.6806      7.6472       89.34
         6         5.2748     16.2491     15.7738     12.4326       29.75
         7        -0.8926      8.7149     -2.9227      1.6332       50.95
         8        -1.1489     -0.8428      0.1762     -0.6052      149.06
         9         0.3287      0.6814     -0.9865      0.0079       90.00
        10        -0.2931      0.5941      0.2328      0.1779       69.09
 1/2[<0|r|b>*<b|rxdel|0> + (<0|rxdel|b>*<b|r|0>)*]
 Rotatory Strengths (R) in cgs (10**-40 erg-esu-cm/Gauss)
       state          XX          YY          ZZ     R(length)
         1         3.8282    -21.9531     -0.3100     -6.1450
         2        -1.0240      0.0031     -0.0220     -0.3476
         3        -1.4616     -0.0413     24.2304      7.5758
         4       -33.6356     -2.1104     -0.6171    -12.1211
         5        25.5093     -4.5195      1.8126      7.6008
         6        29.3506     -0.5702      8.5806     12.4537
         7         6.1645     -1.0424     -0.1961      1.6420
         8        -0.4820      0.0070     -1.3962     -0.6237
         9        -0.8784     -0.0237      0.8848     -0.0058
        10         0.8049     -0.3314      0.0753      0.1829
  1/2[<0|del|b>*<b|r|0> + (<0|r|b>*<b|del|0>)*] (Au)
       state          X           Y           Z        Dip. S.   Osc.(frdel)
         1        -0.0001     -0.1163     -0.0002      0.1166      0.0777
         2        -0.0034     -0.0000     -0.0000      0.0034      0.0023
         3        -0.0435     -0.0000     -0.0001      0.0436      0.0291
         4        -0.3270     -0.0001     -0.0000      0.3271      0.2181
         5        -2.6144     -0.0000     -0.0000      2.6144      1.7430
         6        -0.0055     -0.0012     -0.0008      0.0076      0.0051
         7        -0.0011     -0.0004     -0.0000      0.0016      0.0011
         8        -0.0002     -0.0000     -0.0023      0.0025      0.0017
         9        -0.0185     -0.0000     -0.0000      0.0185      0.0123
        10        -0.0003     -0.0003     -0.0000      0.0005      0.0004

 Excitation energies and oscillator strengths:
 
 Excited State   1:      Singlet-A      3.3737 eV  367.51 nm  f=0.0749  <S**2>=0.000
      46 -> 49         0.10332
      47 -> 48         0.70016
 This state for optimization and/or second-order correction.
 Total Energy, E(TD-HF/TD-DFT) =  -539.219375391    
 Copying the excited state density for this state as the 1-particle RhoCI density.
 
 Excited State   2:      Singlet-A      3.9112 eV  317.00 nm  f=0.0024  <S**2>=0.000
      46 -> 48         0.51269
      47 -> 49        -0.47387
 
 Excited State   3:      Singlet-A      5.0300 eV  246.49 nm  f=0.0292  <S**2>=0.000
      45 -> 48         0.61225
      47 -> 53        -0.31436
 
 Excited State   4:      Singlet-A      5.2228 eV  237.39 nm  f=0.2175  <S**2>=0.000
      45 -> 48         0.33111
      46 -> 48        -0.15232
      47 -> 49        -0.19038
      47 -> 52        -0.15432
      47 -> 53         0.52917
 
 Excited State   5:      Singlet-A      5.2549 eV  235.94 nm  f=1.7408  <S**2>=0.000
      46 -> 48         0.44250
      47 -> 49         0.47395
      47 -> 53         0.25691
 
 Excited State   6:      Singlet-A      5.3065 eV  233.64 nm  f=0.0050  <S**2>=0.000
      47 -> 50         0.31281
      47 -> 54         0.60552
 
 Excited State   7:      Singlet-A      5.3583 eV  231.39 nm  f=0.0011  <S**2>=0.000
      47 -> 50         0.57235
      47 -> 54        -0.31441
      47 -> 56        -0.14984
      47 -> 59        -0.11360
 
 Excited State   8:      Singlet-A      5.5270 eV  224.32 nm  f=0.0017  <S**2>=0.000
      47 -> 51         0.68155
 
 Excited State   9:      Singlet-A      5.6571 eV  219.17 nm  f=0.0125  <S**2>=0.000
      45 -> 50         0.16770
      47 -> 52         0.64121
      47 -> 53         0.17320
 
 Excited State  10:      Singlet-A      5.7578 eV  215.33 nm  f=0.0004  <S**2>=0.000
      43 -> 48        -0.28567
      45 -> 49         0.43003
      46 -> 53         0.38537
      47 -> 65         0.17739
 SavETr:  write IOETrn=   770 NScale= 10 NData=  16 NLR=1 NState=   10 LETran=     190.

 **********************************************************************

            Population analysis using the SCF density.

 **********************************************************************

 Orbital symmetries:
       Occupied  (A) (A) (A) (A) (A) (A) (A) (A) (A) (A) (A) (A)
                 (A) (A) (A) (A) (A) (A) (A) (A) (A) (A) (A) (A)
                 (A) (A) (A) (A) (A) (A) (A) (A) (A) (A) (A) (A)
                 (A) (A) (A) (A) (A) (A) (A) (A) (A) (A) (A)
       Virtual   (A) (A) (A) (A) (A) (A) (A) (A) (A) (A) (A) (A)
                 (A) (A) (A) (A) (A) (A) (A) (A) (A) (A) (A) (A)
                 (A) (A) (A) (A) (A) (A) (A) (A) (A) (A) (A) (A)
                 (A) (A) (A) (A) (A) (A) (A) (A) (A) (A) (A) (A)
                 (A) (A) (A) (A) (A) (A) (A) (A) (A) (A) (A) (A)
                 (A) (A) (A) (A) (A) (A) (A) (A) (A) (A) (A) (A)
                 (A) (A) (A) (A) (A) (A) (A) (A) (A) (A) (A) (A)
                 (A) (A) (A) (A) (A) (A) (A) (A) (A) (A) (A) (A)
                 (A) (A) (A) (A) (A) (A) (A) (A) (A) (A) (A) (A)
                 (A) (A) (A) (A) (A) (A) (A) (A) (A) (A) (A) (A)
                 (A) (A) (A) (A) (A) (A) (A) (A) (A) (A) (A) (A)
                 (A) (A) (A) (A) (A) (A) (A) (A) (A) (A) (A) (A)
                 (A) (A) (A) (A) (A) (A) (A) (A) (A) (A) (A) (A)
                 (A) (A) (A) (A) (A) (A) (A) (A) (A) (A) (A) (A)
                 (A) (A) (A) (A) (A) (A) (A) (A) (A) (A) (A) (A)
                 (A) (A) (A) (A) (A) (A) (A) (A) (A) (A) (A) (A)
                 (A) (A) (A) (A) (A) (A) (A) (A) (A) (A) (A) (A)
                 (A) (A) (A) (A) (A) (A) (A) (A) (A) (A) (A) (A)
                 (A) (A) (A) (A) (A) (A) (A) (A) (A) (A) (A) (A)
                 (A) (A) (A) (A) (A) (A) (A) (A) (A) (A) (A) (A)
                 (A) (A) (A) (A) (A) (A) (A) (A) (A) (A) (A) (A)
                 (A) (A) (A) (A) (A) (A) (A) (A) (A) (A) (A) (A)
                 (A) (A) (A) (A) (A) (A) (A) (A) (A) (A) (A) (A)
                 (A) (A) (A) (A) (A) (A) (A) (A) (A) (A) (A) (A)
                 (A) (A) (A) (A) (A) (A) (A) (A) (A) (A) (A) (A)
                 (A) (A) (A) (A) (A) (A) (A) (A) (A) (A) (A) (A)
                 (A) (A) (A) (A) (A) (A) (A) (A) (A) (A) (A) (A)
                 (A) (A) (A) (A) (A) (A) (A) (A) (A) (A) (A) (A)
                 (A) (A) (A) (A) (A) (A) (A) (A) (A) (A) (A) (A)
                 (A) (A) (A) (A) (A) (A) (A) (A) (A) (A) (A) (A)
                 (A) (A) (A) (A) (A) (A) (A) (A) (A) (A) (A) (A)
                 (A) (A) (A) (A) (A) (A) (A) (A) (A) (A) (A) (A)
                 (A) (A) (A)
 The electronic state is 1-A.
 Alpha  occ. eigenvalues --  -10.26638 -10.26557 -10.26222 -10.26194 -10.26124
 Alpha  occ. eigenvalues --  -10.25492 -10.25358 -10.25357 -10.25240 -10.25237
 Alpha  occ. eigenvalues --  -10.25189 -10.25175 -10.25023 -10.24992  -0.97203
 Alpha  occ. eigenvalues --   -0.94088  -0.88910  -0.87282  -0.83758  -0.82451
 Alpha  occ. eigenvalues --   -0.78620  -0.72843  -0.69686  -0.68278  -0.66828
 Alpha  occ. eigenvalues --   -0.61848  -0.59959  -0.58078  -0.54017  -0.53436
 Alpha  occ. eigenvalues --   -0.52849  -0.52037  -0.49371  -0.48686  -0.47929
 Alpha  occ. eigenvalues --   -0.47795  -0.46153  -0.44921  -0.43742  -0.41321
 Alpha  occ. eigenvalues --   -0.40406  -0.39639  -0.37122  -0.36757  -0.31916
 Alpha  occ. eigenvalues --   -0.29480  -0.24620
 Alpha virt. eigenvalues --   -0.03755   0.01387   0.02959   0.03489   0.03539
 Alpha virt. eigenvalues --    0.03849   0.04504   0.05166   0.05258   0.07054
 Alpha virt. eigenvalues --    0.07176   0.07907   0.08200   0.08942   0.09116
 Alpha virt. eigenvalues --    0.09535   0.09692   0.09868   0.10629   0.11992
 Alpha virt. eigenvalues --    0.12719   0.13387   0.13507   0.13648   0.15175
 Alpha virt. eigenvalues --    0.15863   0.15939   0.16146   0.16558   0.16923
 Alpha virt. eigenvalues --    0.17129   0.17800   0.18661   0.19497   0.19622
 Alpha virt. eigenvalues --    0.19777   0.20495   0.21085   0.21827   0.22290
 Alpha virt. eigenvalues --    0.22599   0.22652   0.22770   0.22921   0.23223
 Alpha virt. eigenvalues --    0.23764   0.23883   0.24604   0.25054   0.25362
 Alpha virt. eigenvalues --    0.25538   0.26160   0.26711   0.27008   0.27500
 Alpha virt. eigenvalues --    0.27855   0.28921   0.29483   0.29950   0.30282
 Alpha virt. eigenvalues --    0.30829   0.30913   0.31194   0.31582   0.31975
 Alpha virt. eigenvalues --    0.32149   0.33698   0.34019   0.34694   0.35057
 Alpha virt. eigenvalues --    0.35318   0.37134   0.37938   0.38421   0.39118
 Alpha virt. eigenvalues --    0.39440   0.40595   0.43691   0.43930   0.49554
 Alpha virt. eigenvalues --    0.50009   0.51380   0.52349   0.52711   0.53979
 Alpha virt. eigenvalues --    0.54600   0.55026   0.55202   0.55741   0.56678
 Alpha virt. eigenvalues --    0.57429   0.57524   0.57814   0.58108   0.58746
 Alpha virt. eigenvalues --    0.59201   0.59622   0.59939   0.60927   0.61231
 Alpha virt. eigenvalues --    0.61639   0.62574   0.62845   0.63357   0.64103
 Alpha virt. eigenvalues --    0.64540   0.66763   0.67184   0.69345   0.69519
 Alpha virt. eigenvalues --    0.70178   0.70303   0.70830   0.71045   0.71869
 Alpha virt. eigenvalues --    0.72202   0.73876   0.73997   0.74397   0.74964
 Alpha virt. eigenvalues --    0.75078   0.76158   0.77002   0.78510   0.78541
 Alpha virt. eigenvalues --    0.79550   0.80146   0.81299   0.81746   0.82826
 Alpha virt. eigenvalues --    0.83511   0.84434   0.84856   0.85223   0.85999
 Alpha virt. eigenvalues --    0.86413   0.86509   0.86916   0.87130   0.88060
 Alpha virt. eigenvalues --    0.88307   0.88799   0.89457   0.89908   0.90767
 Alpha virt. eigenvalues --    0.92260   0.93721   0.94100   0.94794   0.95077
 Alpha virt. eigenvalues --    0.95416   0.97721   1.00850   1.01713   1.03992
 Alpha virt. eigenvalues --    1.05680   1.05810   1.07737   1.09962   1.10889
 Alpha virt. eigenvalues --    1.13518   1.15576   1.15766   1.17736   1.19789
 Alpha virt. eigenvalues --    1.20253   1.21525   1.23308   1.23401   1.24903
 Alpha virt. eigenvalues --    1.26171   1.26442   1.28196   1.29881   1.30126
 Alpha virt. eigenvalues --    1.30779   1.32331   1.32565   1.33758   1.34278
 Alpha virt. eigenvalues --    1.35988   1.36733   1.37300   1.38127   1.38485
 Alpha virt. eigenvalues --    1.38884   1.39892   1.41490   1.42481   1.43298
 Alpha virt. eigenvalues --    1.44669   1.46643   1.47393   1.50003   1.51790
 Alpha virt. eigenvalues --    1.55793   1.56097   1.56933   1.57153   1.60666
 Alpha virt. eigenvalues --    1.61015   1.62887   1.63678   1.64127   1.65021
 Alpha virt. eigenvalues --    1.66598   1.67427   1.68563   1.69980   1.75858
 Alpha virt. eigenvalues --    1.76070   1.78474   1.79421   1.81170   1.82709
 Alpha virt. eigenvalues --    1.87659   1.90339   1.91007   1.93041   1.94139
 Alpha virt. eigenvalues --    1.95078   1.97436   1.99875   2.02364   2.04169
 Alpha virt. eigenvalues --    2.07493   2.09179   2.14710   2.16072   2.20174
 Alpha virt. eigenvalues --    2.21810   2.22599   2.23797   2.31038   2.31664
 Alpha virt. eigenvalues --    2.41394   2.41790   2.44139   2.58416   2.60100
 Alpha virt. eigenvalues --    2.61249   2.65726   2.68182   2.69736   2.71200
 Alpha virt. eigenvalues --    2.71752   2.72926   2.73286   2.74509   2.75274
 Alpha virt. eigenvalues --    2.76703   2.78589   2.81526   2.82797   2.83019
 Alpha virt. eigenvalues --    2.83383   2.83741   2.85440   2.88477   2.90128
 Alpha virt. eigenvalues --    2.90233   2.90549   2.92090   2.92838   2.94308
 Alpha virt. eigenvalues --    2.94702   2.97744   3.00381   3.04541   3.10103
 Alpha virt. eigenvalues --    3.12911   3.13444   3.14873   3.15373   3.17740
 Alpha virt. eigenvalues --    3.19355   3.19741   3.20228   3.20538   3.23236
 Alpha virt. eigenvalues --    3.24384   3.24984   3.27990   3.28261   3.29226
 Alpha virt. eigenvalues --    3.31418   3.32151   3.32245   3.32763   3.34719
 Alpha virt. eigenvalues --    3.35421   3.36055   3.36480   3.37089   3.39778
 Alpha virt. eigenvalues --    3.40681   3.42578   3.44989   3.47639   3.49118
 Alpha virt. eigenvalues --    3.49667   3.51308   3.53546   3.54799   3.55982
 Alpha virt. eigenvalues --    3.56978   3.57696   3.59690   3.59764   3.61735
 Alpha virt. eigenvalues --    3.63187   3.65631   3.66067   3.67128   3.67547
 Alpha virt. eigenvalues --    3.68441   3.69303   3.69721   3.70736   3.71901
 Alpha virt. eigenvalues --    3.72306   3.72598   3.73839   3.74343   3.75499
 Alpha virt. eigenvalues --    3.76952   3.77313   3.78595   3.81959   3.82008
 Alpha virt. eigenvalues --    3.83421   3.83498   3.84769   3.86269   3.86736
 Alpha virt. eigenvalues --    3.88191   3.88917   3.89818   3.89996   3.91924
 Alpha virt. eigenvalues --    3.93139   3.96931   3.98515   4.00348   4.02043
 Alpha virt. eigenvalues --    4.02351   4.03765   4.05646   4.06651   4.07062
 Alpha virt. eigenvalues --    4.09183   4.12692   4.13278   4.17945   4.21490
 Alpha virt. eigenvalues --    4.29682   4.34996   4.35520   4.36637   4.39251
 Alpha virt. eigenvalues --    4.42677   4.64401   4.65877   4.67148   4.73170
 Alpha virt. eigenvalues --    4.81280   4.82210   4.87913   4.94618   5.22511
 Alpha virt. eigenvalues --    5.30451   5.34755   5.39823  23.67191  23.83739
 Alpha virt. eigenvalues --   24.01768  24.02490  24.04831  24.07742  24.10146
 Alpha virt. eigenvalues --   24.13449  24.13669  24.19812  24.27136  24.28577
 Alpha virt. eigenvalues --   24.31154  24.43479
          Condensed to atoms (all electrons):
               1          2          3          4          5          6
     1  C    5.788880   0.562598   0.366027  -0.412063   0.364933  -0.396574
     2  C    0.562598   5.909516   0.036795   0.243836  -0.336498  -0.048082
     3  C    0.366027   0.036795   5.777646   0.028918  -0.509437   0.246292
     4  C   -0.412063   0.243836   0.028918   7.533768  -0.479607  -0.495728
     5  C    0.364933  -0.336498  -0.509437  -0.479607   6.876630  -0.527160
     6  C   -0.396574  -0.048082   0.246292  -0.495728  -0.527160   8.182158
     7  C   -0.375761   0.007733   0.126849   0.073919   0.001894   0.174177
     8  C   -0.060273  -0.033692  -0.385510   0.021502   0.088565  -0.141963
     9  C   -0.027919   0.051403   0.130730  -0.157036  -0.362950   0.472931
    10  C    0.249112  -0.261767   0.056224   0.203127   0.743567  -1.963627
    11  C   -0.459738  -0.135613   0.082325   0.077432  -0.066262   0.213131
    12  C   -0.039963  -0.387422  -0.052219  -0.074598   0.109405   0.004743
    13  C   -0.015481   0.186310   0.051699   0.371458  -0.366720  -0.180923
    14  C    0.184127  -0.030553  -0.272574  -1.311847   0.605954   0.165612
    15  H   -0.006334  -0.073932   0.006872   0.003323  -0.003676   0.002549
    16  H    0.004861   0.018152   0.000591  -0.003195  -0.000048  -0.000331
    17  H   -0.001455  -0.002983  -0.000181   0.020446   0.001658   0.000853
    18  H   -0.000324   0.010496  -0.000130  -0.093047   0.005728   0.001826
    19  H    0.413744  -0.042373  -0.046440   0.004363   0.001614   0.003299
    20  H    0.000140  -0.000242   0.009878   0.000488   0.004054  -0.095228
    21  H   -0.002119  -0.000234  -0.004205   0.001212   0.002064   0.026569
    22  H   -0.002748   0.003215  -0.064448   0.002929  -0.001791   0.002938
    23  H    0.004790   0.000445   0.014418  -0.000381   0.000272  -0.004410
    24  H   -0.000167   0.009327   0.011394  -0.032113   0.393289  -0.045223
               7          8          9         10         11         12
     1  C   -0.375761  -0.060273  -0.027919   0.249112  -0.459738  -0.039963
     2  C    0.007733  -0.033692   0.051403  -0.261767  -0.135613  -0.387422
     3  C    0.126849  -0.385510   0.130730   0.056224   0.082325  -0.052219
     4  C    0.073919   0.021502  -0.157036   0.203127   0.077432  -0.074598
     5  C    0.001894   0.088565  -0.362950   0.743567  -0.066262   0.109405
     6  C    0.174177  -0.141963   0.472931  -1.963627   0.213131   0.004743
     7  C    5.558401   0.645082  -0.121709  -0.038313  -0.184883  -0.028900
     8  C    0.645082   5.274812   0.395006   0.098366  -0.043708   0.001515
     9  C   -0.121709   0.395006   5.664468  -0.270660   0.037635   0.000226
    10  C   -0.038313   0.098366  -0.270660   7.346201  -0.144610  -0.014679
    11  C   -0.184883  -0.043708   0.037635  -0.144610   5.934230   0.627302
    12  C   -0.028900   0.001515   0.000226  -0.014679   0.627302   5.280387
    13  C    0.017392   0.002039  -0.013661   0.042668  -0.205741   0.396955
    14  C   -0.045256  -0.017746   0.020777  -0.067204   0.113818   0.027327
    15  H    0.000285  -0.000225   0.000157  -0.000220   0.416629  -0.024444
    16  H    0.000070  -0.000003  -0.000001  -0.000005  -0.022263   0.395614
    17  H   -0.000074  -0.000003   0.000008  -0.000026   0.014192  -0.068572
    18  H    0.000063   0.000049   0.000162   0.000810  -0.000900   0.019447
    19  H   -0.004259   0.004861   0.000294  -0.001596  -0.005620   0.004642
    20  H   -0.001314   0.021314  -0.028898   0.422020  -0.000068   0.000051
    21  H    0.011453  -0.066866   0.402836  -0.027329  -0.000066  -0.000003
    22  H    0.404684  -0.022807   0.013411   0.000501  -0.000164  -0.000232
    23  H   -0.020221   0.396296  -0.060708   0.013026   0.000078   0.000000
    24  H   -0.000983  -0.000264   0.003961   0.001639  -0.001710  -0.000458
              13         14         15         16         17         18
     1  C   -0.015481   0.184127  -0.006334   0.004861  -0.001455  -0.000324
     2  C    0.186310  -0.030553  -0.073932   0.018152  -0.002983   0.010496
     3  C    0.051699  -0.272574   0.006872   0.000591  -0.000181  -0.000130
     4  C    0.371458  -1.311847   0.003323  -0.003195   0.020446  -0.093047
     5  C   -0.366720   0.605954  -0.003676  -0.000048   0.001658   0.005728
     6  C   -0.180923   0.165612   0.002549  -0.000331   0.000853   0.001826
     7  C    0.017392  -0.045256   0.000285   0.000070  -0.000074   0.000063
     8  C    0.002039  -0.017746  -0.000225  -0.000003  -0.000003   0.000049
     9  C   -0.013661   0.020777   0.000157  -0.000001   0.000008   0.000162
    10  C    0.042668  -0.067204  -0.000220  -0.000005  -0.000026   0.000810
    11  C   -0.205741   0.113818   0.416629  -0.022263   0.014192  -0.000900
    12  C    0.396955   0.027327  -0.024444   0.395614  -0.068572   0.019447
    13  C    5.689827  -0.146916   0.015176  -0.058751   0.406474  -0.035004
    14  C   -0.146916   6.729426   0.000205   0.008868  -0.027131   0.423443
    15  H    0.015176   0.000205   0.568319  -0.006319  -0.000354   0.000077
    16  H   -0.058751   0.008868  -0.006319   0.571789  -0.004176  -0.000346
    17  H    0.406474  -0.027131  -0.000354  -0.004176   0.571636  -0.007025
    18  H   -0.035004   0.423443   0.000077  -0.000346  -0.007025   0.578690
    19  H    0.000529  -0.002359   0.005981  -0.000045  -0.000002   0.000028
    20  H    0.000122   0.000678   0.000000   0.000000  -0.000000   0.000016
    21  H    0.000007  -0.000042   0.000000   0.000000  -0.000000  -0.000000
    22  H    0.000133   0.000196   0.000014   0.000000   0.000000  -0.000000
    23  H   -0.000001  -0.000020  -0.000000  -0.000000   0.000000   0.000000
    24  H    0.006028  -0.004034   0.000020  -0.000002  -0.000040   0.005611
              19         20         21         22         23         24
     1  C    0.413744   0.000140  -0.002119  -0.002748   0.004790  -0.000167
     2  C   -0.042373  -0.000242  -0.000234   0.003215   0.000445   0.009327
     3  C   -0.046440   0.009878  -0.004205  -0.064448   0.014418   0.011394
     4  C    0.004363   0.000488   0.001212   0.002929  -0.000381  -0.032113
     5  C    0.001614   0.004054   0.002064  -0.001791   0.000272   0.393289
     6  C    0.003299  -0.095228   0.026569   0.002938  -0.004410  -0.045223
     7  C   -0.004259  -0.001314   0.011453   0.404684  -0.020221  -0.000983
     8  C    0.004861   0.021314  -0.066866  -0.022807   0.396296  -0.000264
     9  C    0.000294  -0.028898   0.402836   0.013411  -0.060708   0.003961
    10  C   -0.001596   0.422020  -0.027329   0.000501   0.013026   0.001639
    11  C   -0.005620  -0.000068  -0.000066  -0.000164   0.000078  -0.001710
    12  C    0.004642   0.000051  -0.000003  -0.000232   0.000000  -0.000458
    13  C    0.000529   0.000122   0.000007   0.000133  -0.000001   0.006028
    14  C   -0.002359   0.000678  -0.000042   0.000196  -0.000020  -0.004034
    15  H    0.005981   0.000000   0.000000   0.000014  -0.000000   0.000020
    16  H   -0.000045   0.000000   0.000000   0.000000  -0.000000  -0.000002
    17  H   -0.000002  -0.000000  -0.000000   0.000000   0.000000  -0.000040
    18  H    0.000028   0.000016  -0.000000  -0.000000   0.000000   0.005611
    19  H    0.559994   0.000028  -0.000002   0.006051  -0.000049   0.000068
    20  H    0.000028   0.579217  -0.007255   0.000078  -0.000354   0.005265
    21  H   -0.000002  -0.007255   0.571790  -0.000355  -0.004072  -0.000036
    22  H    0.006051   0.000078  -0.000355   0.569149  -0.006377   0.000020
    23  H   -0.000049  -0.000354  -0.004072  -0.006377   0.571463  -0.000002
    24  H    0.000068   0.005265  -0.000036   0.000020  -0.000002   0.541315
 Mulliken charges:
               1
     1  C   -0.138294
     2  C    0.313563
     3  C    0.388487
     4  C    0.472893
     5  C   -0.545477
     6  C    0.402171
     7  C   -0.200325
     8  C   -0.176347
     9  C   -0.150464
    10  C   -0.387226
    11  C   -0.245425
    12  C   -0.176124
    13  C   -0.163619
    14  C   -0.354752
    15  H    0.095899
    16  H    0.095539
    17  H    0.096755
    18  H    0.090330
    19  H    0.097249
    20  H    0.090009
    21  H    0.096653
    22  H    0.095603
    23  H    0.095807
    24  H    0.107094
 Sum of Mulliken charges =  -0.00000
 Mulliken charges with hydrogens summed into heavy atoms:
               1
     1  C   -0.041045
     2  C    0.313563
     3  C    0.388487
     4  C    0.472893
     5  C   -0.438383
     6  C    0.402171
     7  C   -0.104722
     8  C   -0.080540
     9  C   -0.053810
    10  C   -0.297217
    11  C   -0.149526
    12  C   -0.080584
    13  C   -0.066865
    14  C   -0.264421
 Electronic spatial extent (au):  <R**2>=           2833.0665
 Charge=             -0.0000 electrons
 Dipole moment (field-independent basis, Debye):
    X=             -0.0101    Y=             -0.0876    Z=              0.4549  Tot=              0.4634
 Quadrupole moment (field-independent basis, Debye-Ang):
   XX=            -72.4568   YY=            -71.8750   ZZ=            -88.9154
   XY=             -0.0867   XZ=              0.0894   YZ=              0.3143
 Traceless Quadrupole moment (field-independent basis, Debye-Ang):
   XX=              5.2923   YY=              5.8741   ZZ=            -11.1664
   XY=             -0.0867   XZ=              0.0894   YZ=              0.3143
 Octapole moment (field-independent basis, Debye-Ang**2):
  XXX=              0.0371  YYY=             -0.3673  ZZZ=              0.3678  XYY=             -0.1357
  XXY=             -1.1314  XXZ=             15.0855  XZZ=              0.0148  YZZ=              0.0266
  YYZ=              0.6234  XYZ=              1.4179
 Hexadecapole moment (field-independent basis, Debye-Ang**3):
 XXXX=          -2830.6910 YYYY=           -705.3880 ZZZZ=           -129.4338 XXXY=             -1.9428
 XXXZ=             -0.2296 YYYX=             -0.6093 YYYZ=              1.7095 ZZZX=              0.2138
 ZZZY=              0.6203 XXYY=           -604.2879 XXZZ=           -604.2277 YYZZ=           -167.7258
 XXYZ=              4.0762 YYXZ=              1.0542 ZZXY=              0.6294
 N-N= 7.664648408551D+02 E-N=-2.784257830540D+03  KE= 5.370456170030D+02
 1\1\GINC-C3CPU-C11-U11-1\SP\RCAM-B3LYP TD-FC\6-311+G(2d,p)\C14H10\SILE
 6618\11-Apr-2024\0\\# CAM-B3LYP/6-311+G(2d,p) TD(NStates=10)\\TD-DFT e
 xcited state calculation: CAM-B3LYP/6-311+G(2d,p)\\0,1\C,0,10.70051,5.
 44882,23.71103\C,0,9.86535,6.36033,23.06568\C,0,11.92708,5.09157,23.15
 315\C,0,10.20494,6.81277,21.73154\C,0,11.36552,6.33847,21.05453\C,0,12
 .28918,5.58033,21.83391\C,0,12.86133,4.31545,23.9032\C,0,14.13694,4.09
 733,23.44877\C,0,14.53031,4.64821,22.20398\C,0,13.6257,5.33579,21.4345
 2\C,0,8.71898,6.89515,23.72297\C,0,7.97054,7.8934,23.15017\C,0,8.32225
 ,8.3755,21.86646\C,0,9.37377,7.81691,21.18403\H,0,8.47903,6.52006,24.7
 1974\H,0,7.118,8.32084,23.67852\H,0,7.74314,9.17777,21.40694\H,0,9.627
 16,8.17517,20.18813\H,0,10.4301,5.07732,24.70245\H,0,13.95536,5.76717,
 20.4966\H,0,15.55371,4.52044,21.84723\H,0,12.54422,3.93771,24.87737\H,
 0,14.8505,3.52914,24.04618\H,0,11.6372,6.71833,20.07691\\Version=ES64L
 -G16RevA.03\State=1-A\HF=-539.3433555\RMSD=4.391e-09\PG=C01 [X(C14H10)
 ]\\@


 WHEN ALL ELSE FAILS, TRY THE BOSS'S SUGGESTION.
 Job cpu time:       0 days  0 hours 51 minutes 24.1 seconds.
 Elapsed time:       0 days  0 hours 51 minutes 31.6 seconds.
 File lengths (MBytes):  RWF=   1384 Int=      0 D2E=      0 Chk=     80 Scr=     16
 Normal termination of Gaussian 16 at Thu Apr 11 18:25:16 2024.
