 Entering Gaussian System, Link 0=g16
 Initial command:
 /curc/sw/install/gaussian/g16_c.02/g16/l1.exe "/scratch/local/7814867/Gau-2445609.inp" -scrdir="/scratch/local/7814867/"
 Entering Link 1 = /curc/sw/install/gaussian/g16_c.02/g16/l1.exe PID=   2445610.
  
 Copyright (c) 1988-2021, Gaussian, Inc.  All Rights Reserved.
  
 This is part of the Gaussian(R) 16 program.  It is based on
 the Gaussian(R) 09 system (copyright 2009, Gaussian, Inc.),
 the Gaussian(R) 03 system (copyright 2003, Gaussian, Inc.),
 the Gaussian(R) 98 system (copyright 1998, Gaussian, Inc.),
 the Gaussian(R) 94 system (copyright 1995, Gaussian, Inc.),
 the Gaussian 92(TM) system (copyright 1992, Gaussian, Inc.),
 the Gaussian 90(TM) system (copyright 1990, Gaussian, Inc.),
 the Gaussian 88(TM) system (copyright 1988, Gaussian, Inc.),
 the Gaussian 86(TM) system (copyright 1986, Carnegie Mellon
 University), and the Gaussian 82(TM) system (copyright 1983,
 Carnegie Mellon University). Gaussian is a federally registered
 trademark of Gaussian, Inc.
  
 This software contains proprietary and confidential information,
 including trade secrets, belonging to Gaussian, Inc.
  
 This software is provided under written license and may be
 used, copied, transmitted, or stored only in accord with that
 written license.
  
 The following legend is applicable only to US Government
 contracts under FAR:
  
                    RESTRICTED RIGHTS LEGEND
  
 Use, reproduction and disclosure by the US Government is
 subject to restrictions as set forth in subparagraphs (a)
 and (c) of the Commercial Computer Software - Restricted
 Rights clause in FAR 52.227-19.
  
 Gaussian, Inc.
 340 Quinnipiac St., Bldg. 40, Wallingford CT 06492
  
  
 ---------------------------------------------------------------
 Warning -- This program may not be used in any manner that
 competes with the business of Gaussian, Inc. or will provide
 assistance to any competitor of Gaussian, Inc.  The licensee
 of this program is prohibited from giving any competitor of
 Gaussian, Inc. access to this program.  By using this program,
 the user acknowledges that Gaussian, Inc. is engaged in the
 business of creating and licensing software in the field of
 computational chemistry and represents and warrants to the
 licensee that it is not a competitor of Gaussian, Inc. and that
 it will not use this program in any manner prohibited above.
 ---------------------------------------------------------------
  

 Cite this work as:
 Gaussian 16, Revision C.02,
 M. J. Frisch, G. W. Trucks, H. B. Schlegel, G. E. Scuseria, 
 M. A. Robb, J. R. Cheeseman, G. Scalmani, V. Barone, 
 G. A. Petersson, H. Nakatsuji, X. Li, M. Caricato, A. V. Marenich, 
 J. Bloino, B. G. Janesko, R. Gomperts, B. Mennucci, H. P. Hratchian, 
 J. V. Ortiz, A. F. Izmaylov, J. L. Sonnenberg, D. Williams-Young, 
 F. Ding, F. Lipparini, F. Egidi, J. Goings, B. Peng, A. Petrone, 
 T. Henderson, D. Ranasinghe, V. G. Zakrzewski, J. Gao, N. Rega, 
 G. Zheng, W. Liang, M. Hada, M. Ehara, K. Toyota, R. Fukuda, 
 J. Hasegawa, M. Ishida, T. Nakajima, Y. Honda, O. Kitao, H. Nakai, 
 T. Vreven, K. Throssell, J. A. Montgomery, Jr., J. E. Peralta, 
 F. Ogliaro, M. J. Bearpark, J. J. Heyd, E. N. Brothers, K. N. Kudin, 
 V. N. Staroverov, T. A. Keith, R. Kobayashi, J. Normand, 
 K. Raghavachari, A. P. Rendell, J. C. Burant, S. S. Iyengar, 
 J. Tomasi, M. Cossi, J. M. Millam, M. Klene, C. Adamo, R. Cammi, 
 J. W. Ochterski, R. L. Martin, K. Morokuma, O. Farkas, 
 J. B. Foresman, and D. J. Fox, Gaussian, Inc., Wallingford CT, 2019.
 
 ******************************************
 Gaussian 16:  ES64L-G16RevC.02  7-Dec-2021
                27-Aug-2024 
 ******************************************
 %NProcShared=32
 Will use up to   32 processors via shared memory.
 %Chk=tddft
 ------------------------------------------
 #p CAM-B3LYP/cc-pVDZ TD(NStates=40,Root=0)
 ------------------------------------------
 1/38=1,172=1/1;
 2/12=2,17=6,18=5,40=1/2;
 3/5=16,11=9,25=1,30=1,74=-40/1,2,3,8;
 4//1;
 5/5=2,38=5/2;
 8/6=1,10=1,108=40/1;
 9/41=40,42=1,70=2/14;
 6/7=2,8=2,9=2,10=2/1;
 99/5=1,9=1/99;
 Leave Link    1 at Tue Aug 27 23:21:36 2024, MaxMem=           0 cpu:               0.5 elap:               0.1
 (Enter /curc/sw/install/gaussian/g16_c.02/g16/l101.exe)
 ---------------------------------------------------
 TD-DFT excited state calculation: CAM-B3LYP/cc-pVDZ
 ---------------------------------------------------
 Symbolic Z-matrix:
 Charge =  0 Multiplicity = 1
 C                     10.7883   5.60957   26.3173 
 C                     9.92421   6.47424   25.63038 
 C                     12.00347   5.21621   25.73742 
 C                     10.27019   6.93771   24.337 
 C                     11.47751   6.53025   23.74973 
 C                     12.3503   5.68044   24.44474 
 C                     12.8861   4.37527   26.43378 
 C                     14.10475   4.00577   25.85792 
 C                     14.44717   4.46338   24.58321 
 C                     13.57402   5.29381   23.8745 
 C                     8.7218    6.89549   26.21979 
 C                     7.87542   7.77343   25.53757 
 C                     8.21584   8.23016   24.26138 
 C                     9.40604   7.81226   23.65865 
 H                     8.44182   6.5545    27.20957 
 H                     6.95432   8.10375   26.00104 
 H                     7.55741   8.91257   23.73981 
 H                     9.65406   8.17971   22.66967 
 H                     10.52354   5.25562   27.30812 
 H                     13.85852   5.64034   22.88784 
 H                     15.39452   4.17703   24.14417 
 H                     12.6387   4.01237   27.42454 
 H                     14.78634   3.36575   26.40315 
 H                     11.74398   6.88702   22.76106 
 
 ITRead=  0  0  0  0  0  0  0  0  0  0  0  0  0  0  0  0  0  0  0  0
 ITRead=  0  0  0  0
 MicOpt= -1 -1 -1 -1 -1 -1 -1 -1 -1 -1 -1 -1 -1 -1 -1 -1 -1 -1 -1 -1
 MicOpt= -1 -1 -1 -1
 NAtoms=     24 NQM=       24 NQMF=       0 NMMI=      0 NMMIF=      0
                NMic=       0 NMicF=      0.
                    Isotopes and Nuclear Properties:
 (Nuclear quadrupole moments (NQMom) in fm**2, nuclear magnetic moments (NMagM)
  in nuclear magnetons)

  Atom         1           2           3           4           5           6           7           8           9          10
 IAtWgt=          12          12          12          12          12          12          12          12          12          12
 AtmWgt=  12.0000000  12.0000000  12.0000000  12.0000000  12.0000000  12.0000000  12.0000000  12.0000000  12.0000000  12.0000000
 NucSpn=           0           0           0           0           0           0           0           0           0           0
 AtZEff=  -0.0000000  -0.0000000  -0.0000000  -0.0000000  -0.0000000  -0.0000000  -0.0000000  -0.0000000  -0.0000000  -0.0000000
 NQMom=    0.0000000   0.0000000   0.0000000   0.0000000   0.0000000   0.0000000   0.0000000   0.0000000   0.0000000   0.0000000
 NMagM=    0.0000000   0.0000000   0.0000000   0.0000000   0.0000000   0.0000000   0.0000000   0.0000000   0.0000000   0.0000000
 AtZNuc=   6.0000000   6.0000000   6.0000000   6.0000000   6.0000000   6.0000000   6.0000000   6.0000000   6.0000000   6.0000000

  Atom        11          12          13          14          15          16          17          18          19          20
 IAtWgt=          12          12          12          12           1           1           1           1           1           1
 AtmWgt=  12.0000000  12.0000000  12.0000000  12.0000000   1.0078250   1.0078250   1.0078250   1.0078250   1.0078250   1.0078250
 NucSpn=           0           0           0           0           1           1           1           1           1           1
 AtZEff=  -0.0000000  -0.0000000  -0.0000000  -0.0000000  -0.0000000  -0.0000000  -0.0000000  -0.0000000  -0.0000000  -0.0000000
 NQMom=    0.0000000   0.0000000   0.0000000   0.0000000   0.0000000   0.0000000   0.0000000   0.0000000   0.0000000   0.0000000
 NMagM=    0.0000000   0.0000000   0.0000000   0.0000000   2.7928460   2.7928460   2.7928460   2.7928460   2.7928460   2.7928460
 AtZNuc=   6.0000000   6.0000000   6.0000000   6.0000000   1.0000000   1.0000000   1.0000000   1.0000000   1.0000000   1.0000000

  Atom        21          22          23          24
 IAtWgt=           1           1           1           1
 AtmWgt=   1.0078250   1.0078250   1.0078250   1.0078250
 NucSpn=           1           1           1           1
 AtZEff=  -0.0000000  -0.0000000  -0.0000000  -0.0000000
 NQMom=    0.0000000   0.0000000   0.0000000   0.0000000
 NMagM=    2.7928460   2.7928460   2.7928460   2.7928460
 AtZNuc=   1.0000000   1.0000000   1.0000000   1.0000000
 Leave Link  101 at Tue Aug 27 23:21:36 2024, MaxMem=   104857600 cpu:               0.7 elap:               0.1
 (Enter /curc/sw/install/gaussian/g16_c.02/g16/l202.exe)
                          Input orientation:                          
 ---------------------------------------------------------------------
 Center     Atomic      Atomic             Coordinates (Angstroms)
 Number     Number       Type             X           Y           Z
 ---------------------------------------------------------------------
      1          6           0       10.788300    5.609570   26.317300
      2          6           0        9.924210    6.474240   25.630380
      3          6           0       12.003470    5.216210   25.737420
      4          6           0       10.270190    6.937710   24.337000
      5          6           0       11.477510    6.530250   23.749730
      6          6           0       12.350300    5.680440   24.444740
      7          6           0       12.886100    4.375270   26.433780
      8          6           0       14.104750    4.005770   25.857920
      9          6           0       14.447170    4.463380   24.583210
     10          6           0       13.574020    5.293810   23.874500
     11          6           0        8.721800    6.895490   26.219790
     12          6           0        7.875420    7.773430   25.537570
     13          6           0        8.215840    8.230160   24.261380
     14          6           0        9.406040    7.812260   23.658650
     15          1           0        8.441820    6.554500   27.209570
     16          1           0        6.954320    8.103750   26.001040
     17          1           0        7.557410    8.912570   23.739810
     18          1           0        9.654060    8.179710   22.669670
     19          1           0       10.523540    5.255620   27.308120
     20          1           0       13.858520    5.640340   22.887840
     21          1           0       15.394520    4.177030   24.144170
     22          1           0       12.638700    4.012370   27.424540
     23          1           0       14.786340    3.365750   26.403150
     24          1           0       11.743980    6.887020   22.761060
 ---------------------------------------------------------------------
                    Distance matrix (angstroms):
                    1          2          3          4          5
     1  C    0.000000
     2  C    1.402200   0.000000
     3  C    1.402723   2.432575   0.000000
     4  C    2.440078   1.416806   2.815848   0.000000
     5  C    2.813375   2.439820   2.440132   1.403044   0.000000
     6  C    2.439538   2.814565   1.416623   2.432939   1.402490
     7  C    2.436766   3.718053   1.403970   4.219665   3.719165
     8  C    3.712418   4.860250   2.427975   5.060960   4.209496
     9  C    4.208105   5.059376   2.805463   4.861079   3.712886
    10  C    3.718496   4.218725   2.437852   3.719087   2.437151
    11  C    2.435882   1.403797   3.717798   2.438071   3.718674
    12  C    3.711487   2.427766   4.860053   2.806193   4.209147
    13  C    4.208545   2.806411   5.060507   2.428271   3.713485
    14  C    3.718993   2.438548   4.219882   1.404191   2.437793
    15  H    2.682351   2.167432   4.079656   3.426579   4.602879
    16  H    4.584796   3.407776   5.822482   3.888917   5.291838
    17  H    5.290739   3.888631   6.117268   3.408208   4.587236
    18  H    4.604055   3.427450   4.869615   2.168449   2.685557
    19  H    1.084944   2.158482   2.158436   3.423619   3.898318
    20  H    4.603085   4.867824   3.426544   4.081586   2.684027
    21  H    5.290740   6.116395   3.888131   5.823856   4.586523
    22  H    2.683469   4.080229   2.167746   4.868301   4.603511
    23  H    4.585458   5.822387   3.407604   6.117474   5.291791
    24  H    3.897697   3.422711   3.423107   2.158289   1.084324
                    6          7          8          9         10
     6  C    0.000000
     7  C    2.438612   0.000000
     8  C    2.807079   1.397588   0.000000
     9  C    2.428430   2.422666   1.396977   0.000000
    10  C    1.404332   2.804793   2.423773   1.397954   0.000000
    11  C    4.218194   4.872237   6.120260   6.432217   5.622260
    12  C    5.059588   6.120261   7.287142   7.419915   6.433379
    13  C    4.860911   6.433570   7.421164   7.288462   6.122248
    14  C    3.719040   5.623617   6.434596   6.122320   4.874550
    15  H    4.866670   5.010241   6.355451   6.880027   6.249121
    16  H    6.116461   7.019604   8.242728   8.450168   7.499224
    17  H    5.823692   7.499300   8.451671   8.244720   7.022333
    18  H    4.082516   6.252069   6.884428   6.359768   5.014591
    19  H    3.422933   2.668553   4.060821   4.842277   4.593107
    20  H    2.168011   3.888405   3.399092   2.146165   1.083753
    21  H    3.408498   3.402026   2.151691   1.082693   2.152705
    22  H    3.427075   1.083747   2.145610   3.398107   3.888405
    23  H    3.889402   2.151971   1.082343   2.152210   3.403117
    24  H    2.158295   4.593713   4.844108   4.062204   2.669665
                   11         12         13         14         15
    11  C    0.000000
    12  C    1.397341   0.000000
    13  C    2.423367   1.397551   0.000000
    14  C    2.805012   2.423767   1.398034   0.000000
    15  H    1.083664   2.145270   3.398636   3.888536   0.000000
    16  H    2.152145   1.082747   2.152633   3.403335   2.464422
    17  H    3.402164   2.151909   1.082242   2.152836   4.287413
    18  H    3.888661   3.399040   2.145824   1.083797   4.972075
    19  H    2.668315   4.060388   4.843139   4.593892   2.455679
    20  H    6.250055   6.882487   6.358743   5.013578   6.989541
    21  H    7.498227   8.450593   8.244698   7.022287   7.961726
    22  H    5.010580   6.355711   6.881644   6.250695   4.911460
    23  H    7.019354   8.242432   8.451103   7.500091   7.146424
    24  H    4.593088   4.843603   4.062359   2.669775   5.550142
                   16         17         18         19         20
    16  H    0.000000
    17  H    2.476099   0.000000
    18  H    4.288635   2.465406   0.000000
    19  H    4.749698   5.907965   5.551713   0.000000
    20  H    7.964194   7.151037   4.916654   5.550583   0.000000
    21  H    9.492316   9.165650   7.151816   5.907655   2.465550
    22  H    7.146882   7.962958   6.991680   2.456242   4.971911
    23  H    9.162471   9.493051   7.965763   4.749952   4.288591
    24  H    5.909209   4.752702   2.459098   4.982639   2.457959
                   21         22         23         24
    21  H    0.000000
    22  H    4.287480   0.000000
    23  H    2.476095   2.464490   0.000000
    24  H    4.752208   5.550872   5.909325   0.000000
 Stoichiometry    C14H10
 Framework group  C1[X(C14H10)]
 Deg. of freedom    66
 Full point group                 C1      NOp   1
 Largest Abelian subgroup         C1      NOp   1
 Largest concise Abelian subgroup C1      NOp   1
                         Standard orientation:                         
 ---------------------------------------------------------------------
 Center     Atomic      Atomic             Coordinates (Angstroms)
 Number     Number       Type             X           Y           Z
 ---------------------------------------------------------------------
      1          6           0        0.000007   -1.405952   -0.031620
      2          6           0       -1.215986   -0.707789   -0.021872
      3          6           0        1.216589   -0.707757   -0.022523
      4          6           0       -1.216876    0.709016   -0.022358
      5          6           0       -0.000042    1.407422   -0.031008
      6          6           0        1.216063    0.708866   -0.021735
      7          6           0        2.436580   -1.402235   -0.001184
      8          6           0        3.643980   -0.699053    0.030012
      9          6           0        3.643899    0.697923    0.030845
     10          6           0        2.436901    1.402557    0.000512
     11          6           0       -2.435657   -1.402436    0.000802
     12          6           0       -3.643162   -0.699885    0.031057
     13          6           0       -3.644563    0.697665    0.029678
     14          6           0       -2.437649    1.402574   -0.001341
     15          1           0       -2.455057   -2.485917    0.005044
     16          1           0       -4.580899   -1.240433    0.059313
     17          1           0       -4.583226    1.235663    0.056481
     18          1           0       -2.459214    2.486154    0.001055
     19          1           0        0.000363   -2.490895   -0.030246
     20          1           0        2.457439    2.486110    0.003987
     21          1           0        4.582424    1.236984    0.059302
     22          1           0        2.456401   -2.485799    0.001025
     23          1           0        4.581572   -1.239110    0.056946
     24          1           0       -0.000299    2.491744   -0.028495
 ---------------------------------------------------------------------
 Rotational constants (GHZ):           2.1678593           0.4584167           0.3784604
 Leave Link  202 at Tue Aug 27 23:21:37 2024, MaxMem=   104857600 cpu:               0.9 elap:               0.1
 (Enter /curc/sw/install/gaussian/g16_c.02/g16/l301.exe)
 Standard basis: CC-pVDZ (5D, 7F)
 Ernie: Thresh=  0.10000D-02 Tol=  0.10000D-05 Strict=F.
 Ernie:  28 primitive shells out of 358 were deleted.
 There are   260 symmetry adapted cartesian basis functions of A   symmetry.
 There are   246 symmetry adapted basis functions of A   symmetry.
   246 basis functions,   532 primitive gaussians,   260 cartesian basis functions
    47 alpha electrons       47 beta electrons
       nuclear repulsion energy       769.9353678581 Hartrees.
 IExCor=20419 DFT=T Ex+Corr=CAM-B3LYP ExCW=0 ScaHFX=  1.000000
 ScaDFX=  1.000000  1.000000  1.000000  0.810000 ScalE2=  1.000000  1.000000
 IRadAn=      5 IRanWt=     -1 IRanGd=            0 ICorTp=0 IEmpDi=  4
 HFx  wShort=  0.000000 wLong=  0.330000 cFull=  0.190000 cShort=  0.000000 cLong=  0.460000
 DFx  wShort=  0.000000 wLong=  0.330000 cFull=  0.190000 cShort=  0.000000 cLong=  0.460000
 NAtoms=   24 NActive=   24 NUniq=   24 SFac= 1.00D+00 NAtFMM=   60 NAOKFM=F Big=F
 Integral buffers will be    131072 words long.
 Raffenetti 1 integral format.
 Two-electron integral symmetry is turned on.
 Leave Link  301 at Tue Aug 27 23:21:37 2024, MaxMem=   104857600 cpu:               0.4 elap:               0.1
 (Enter /curc/sw/install/gaussian/g16_c.02/g16/l302.exe)
 NPDir=0 NMtPBC=     1 NCelOv=     1 NCel=       1 NClECP=     1 NCelD=      1
         NCelK=      1 NCelE2=     1 NClLst=     1 CellRange=     0.0.
 One-electron integrals computed using PRISM.
 One-electron integral symmetry used in STVInt
 PrsmSu:  requested number of processors reduced to:  28 ShMem   1 Linda.
 NBasis=   246 RedAO= T EigKep=  1.24D-04  NBF=   246
 NBsUse=   246 1.00D-06 EigRej= -1.00D+00 NBFU=   246
 Precomputing XC quadrature grid using
 IXCGrd= 4 IRadAn=           5 IRanWt=          -1 IRanGd=           0 AccXCQ= 0.00D+00.
 Generated NRdTot=       0 NPtTot=           0 NUsed=           0 NTot=          32
 NSgBfM=   260   260   260   260   260 MxSgAt=    24 MxSgA2=    24.
 Leave Link  302 at Tue Aug 27 23:21:38 2024, MaxMem=   104857600 cpu:               6.3 elap:               0.9
 (Enter /curc/sw/install/gaussian/g16_c.02/g16/l303.exe)
 DipDrv:  MaxL=1.
 Leave Link  303 at Tue Aug 27 23:21:38 2024, MaxMem=   104857600 cpu:               1.1 elap:               0.1
 (Enter /curc/sw/install/gaussian/g16_c.02/g16/l308.exe)
 Leave Link  308 at Tue Aug 27 23:21:39 2024, MaxMem=   104857600 cpu:               0.6 elap:               0.1
 (Enter /curc/sw/install/gaussian/g16_c.02/g16/l401.exe)
 ExpMin= 1.22D-01 ExpMax= 6.67D+03 ExpMxC= 2.28D+02 IAcc=3 IRadAn=         5 AccDes= 0.00D+00
 Harris functional with IExCor=20419 and IRadAn=       5 diagonalized for initial guess.
 HarFok:  IExCor=20419 AccDes= 0.00D+00 IRadAn=         5 IDoV= 1 UseB2=F ITyADJ=14
 ICtDFT=  3500011 ScaDFX=  1.000000  1.000000  1.000000  1.000000
 FoFCou: FMM=F IPFlag=           0 FMFlag=      100000 FMFlg1=           0
         NFxFlg=           0 DoJE=T BraDBF=F KetDBF=T FulRan=T
         wScrn=  0.000000 ICntrl=       500 IOpCl=  0 I1Cent=   200000004 NGrid=           0
         NMat0=    1 NMatS0=      1 NMatT0=    0 NMatD0=    1 NMtDS0=    0 NMtDT0=    0
 Petite list used in FoFCou.
 Harris En= -517.140801329586    
 JPrj=0 DoOrth=F DoCkMO=F.
 Leave Link  401 at Tue Aug 27 23:21:40 2024, MaxMem=   104857600 cpu:               8.8 elap:               1.0
 (Enter /curc/sw/install/gaussian/g16_c.02/g16/l502.exe)
 Integral symmetry usage will be decided dynamically.
 Closed shell SCF:
 Using DIIS extrapolation, IDIIS=  1040.
 NGot=   104857600 LenX=   104710746 LenY=   104642705
 Requested convergence on RMS density matrix=1.00D-08 within 128 cycles.
 Requested convergence on MAX density matrix=1.00D-06.
 Requested convergence on             energy=1.00D-06.
 No special actions if energy rises.
 Fock matrices will be formed incrementally for  20 cycles.
 Integral accuracy reduced to 1.0D-05 until final iterations.

 Cycle   1  Pass 0  IDiag  1:
 FoFJK:  IHMeth= 1 ICntrl=       0 DoSepK=T KAlg= 0 I1Cent=           0 FoldK=F
 IRaf=         1 NMat=       1 IRICut=       1 DoRegI=T DoRafI=F ISym2E= 0 IDoP0=0 IntGTp=1.
 FoFCou: FMM=F IPFlag=           0 FMFlag=      100000 FMFlg1=           0
         NFxFlg=           0 DoJE=T BraDBF=F KetDBF=F FulRan=T
         wScrn=  0.000000 ICntrl=       500 IOpCl=  0 I1Cent=           0 NGrid=           0
         NMat0=    1 NMatS0=      1 NMatT0=    0 NMatD0=    1 NMtDS0=    0 NMtDT0=    0
 Symmetry not used in FoFCou.
 E= -539.174561506448    
 DIIS: error= 2.51D-02 at cycle   1 NSaved=   1.
 NSaved= 1 IEnMin= 1 EnMin= -539.174561506448     IErMin= 1 ErrMin= 2.51D-02
 ErrMax= 2.51D-02  0.00D+00 EMaxC= 1.00D-01 BMatC= 1.26D-01 BMatP= 1.26D-01
 IDIUse=3 WtCom= 7.49D-01 WtEn= 2.51D-01
 Coeff-Com:  0.100D+01
 Coeff-En:   0.100D+01
 Coeff:      0.100D+01
 Gap=     0.200 Goal=   None    Shift=    0.000
 GapD=    0.200 DampG=1.000 DampE=0.500 DampFc=0.5000 IDamp=-1.
 Damping current iteration by 5.00D-01
 RMSDP=2.73D-03 MaxDP=6.19D-02              OVMax= 4.47D-02

 Cycle   2  Pass 0  IDiag  1:
 RMSU=  1.29D-03    CP:  9.79D-01
 E= -539.202891664195     Delta-E=       -0.028330157747 Rises=F Damp=T
 DIIS: error= 1.30D-02 at cycle   2 NSaved=   2.
 NSaved= 2 IEnMin= 2 EnMin= -539.202891664195     IErMin= 2 ErrMin= 1.30D-02
 ErrMax= 1.30D-02  0.00D+00 EMaxC= 1.00D-01 BMatC= 2.89D-02 BMatP= 1.26D-01
 IDIUse=3 WtCom= 8.70D-01 WtEn= 1.30D-01
 Coeff-Com: -0.697D+00 0.170D+01
 Coeff-En:   0.000D+00 0.100D+01
 Coeff:     -0.606D+00 0.161D+01
 Gap=     0.201 Goal=   None    Shift=    0.000
 RMSDP=1.25D-03 MaxDP=2.49D-02 DE=-2.83D-02 OVMax= 2.66D-02

 Cycle   3  Pass 0  IDiag  1:
 RMSU=  6.92D-04    CP:  9.64D-01  1.77D+00
 E= -539.226727491951     Delta-E=       -0.023835827756 Rises=F Damp=F
 DIIS: error= 3.15D-03 at cycle   3 NSaved=   3.
 NSaved= 3 IEnMin= 3 EnMin= -539.226727491951     IErMin= 3 ErrMin= 3.15D-03
 ErrMax= 3.15D-03  0.00D+00 EMaxC= 1.00D-01 BMatC= 2.88D-03 BMatP= 2.89D-02
 IDIUse=3 WtCom= 9.68D-01 WtEn= 3.15D-02
 Coeff-Com: -0.315D+00 0.626D+00 0.689D+00
 Coeff-En:   0.000D+00 0.000D+00 0.100D+01
 Coeff:     -0.305D+00 0.606D+00 0.699D+00
 Gap=     0.202 Goal=   None    Shift=    0.000
 RMSDP=2.73D-04 MaxDP=7.11D-03 DE=-2.38D-02 OVMax= 1.49D-02

 Cycle   4  Pass 0  IDiag  1:
 RMSU=  1.59D-04    CP:  9.61D-01  1.88D+00  7.74D-01
 E= -539.229482416375     Delta-E=       -0.002754924424 Rises=F Damp=F
 DIIS: error= 1.75D-03 at cycle   4 NSaved=   4.
 NSaved= 4 IEnMin= 4 EnMin= -539.229482416375     IErMin= 4 ErrMin= 1.75D-03
 ErrMax= 1.75D-03  0.00D+00 EMaxC= 1.00D-01 BMatC= 3.13D-04 BMatP= 2.88D-03
 IDIUse=3 WtCom= 9.83D-01 WtEn= 1.75D-02
 Coeff-Com: -0.157D+00 0.306D+00 0.388D+00 0.463D+00
 Coeff-En:   0.000D+00 0.000D+00 0.000D+00 0.100D+01
 Coeff:     -0.154D+00 0.300D+00 0.381D+00 0.473D+00
 Gap=     0.202 Goal=   None    Shift=    0.000
 RMSDP=8.02D-05 MaxDP=2.13D-03 DE=-2.75D-03 OVMax= 5.71D-03

 Cycle   5  Pass 0  IDiag  1:
 RMSU=  5.07D-05    CP:  9.61D-01  1.89D+00  7.91D-01  6.23D-01
 E= -539.229826130803     Delta-E=       -0.000343714428 Rises=F Damp=F
 DIIS: error= 3.23D-04 at cycle   5 NSaved=   5.
 NSaved= 5 IEnMin= 5 EnMin= -539.229826130803     IErMin= 5 ErrMin= 3.23D-04
 ErrMax= 3.23D-04  0.00D+00 EMaxC= 1.00D-01 BMatC= 4.81D-06 BMatP= 3.13D-04
 IDIUse=3 WtCom= 9.97D-01 WtEn= 3.23D-03
 Coeff-Com: -0.141D-01 0.267D-01 0.367D-01 0.117D+00 0.834D+00
 Coeff-En:   0.000D+00 0.000D+00 0.000D+00 0.000D+00 0.100D+01
 Coeff:     -0.141D-01 0.266D-01 0.366D-01 0.116D+00 0.834D+00
 Gap=     0.202 Goal=   None    Shift=    0.000
 RMSDP=1.72D-05 MaxDP=2.85D-04 DE=-3.44D-04 OVMax= 1.86D-03

 Cycle   6  Pass 0  IDiag  1:
 RMSU=  1.09D-05    CP:  9.61D-01  1.89D+00  7.97D-01  6.88D-01  1.03D+00
 E= -539.229833569085     Delta-E=       -0.000007438282 Rises=F Damp=F
 DIIS: error= 1.27D-04 at cycle   6 NSaved=   6.
 NSaved= 6 IEnMin= 6 EnMin= -539.229833569085     IErMin= 6 ErrMin= 1.27D-04
 ErrMax= 1.27D-04  0.00D+00 EMaxC= 1.00D-01 BMatC= 1.15D-06 BMatP= 4.81D-06
 IDIUse=3 WtCom= 9.99D-01 WtEn= 1.27D-03
 Coeff-Com:  0.136D-01-0.270D-01-0.323D-01-0.921D-02 0.363D+00 0.692D+00
 Coeff-En:   0.000D+00 0.000D+00 0.000D+00 0.000D+00 0.000D+00 0.100D+01
 Coeff:      0.136D-01-0.270D-01-0.323D-01-0.920D-02 0.363D+00 0.692D+00
 Gap=     0.202 Goal=   None    Shift=    0.000
 RMSDP=7.47D-06 MaxDP=1.73D-04 DE=-7.44D-06 OVMax= 6.94D-04

 Initial convergence to 1.0D-05 achieved.  Increase integral accuracy.
 Cycle   7  Pass 1  IDiag  1:
 E= -539.229812477506     Delta-E=        0.000021091579 Rises=F Damp=F
 DIIS: error= 1.42D-04 at cycle   1 NSaved=   1.
 NSaved= 1 IEnMin= 1 EnMin= -539.229812477506     IErMin= 1 ErrMin= 1.42D-04
 ErrMax= 1.42D-04  0.00D+00 EMaxC= 1.00D-01 BMatC= 1.35D-06 BMatP= 1.35D-06
 IDIUse=3 WtCom= 9.99D-01 WtEn= 1.42D-03
 Coeff-Com:  0.100D+01
 Coeff-En:   0.100D+01
 Coeff:      0.100D+01
 Gap=     0.202 Goal=   None    Shift=    0.000
 RMSDP=7.47D-06 MaxDP=1.73D-04 DE= 2.11D-05 OVMax= 3.25D-04

 Cycle   8  Pass 1  IDiag  1:
 RMSU=  1.00D-04    CP:  1.00D+00
 E= -539.229813497352     Delta-E=       -0.000001019846 Rises=F Damp=F
 DIIS: error= 2.28D-05 at cycle   2 NSaved=   2.
 NSaved= 2 IEnMin= 2 EnMin= -539.229813497352     IErMin= 2 ErrMin= 2.28D-05
 ErrMax= 2.28D-05  0.00D+00 EMaxC= 1.00D-01 BMatC= 8.49D-08 BMatP= 1.35D-06
 IDIUse=1 WtCom= 1.00D+00 WtEn= 0.00D+00
 Coeff-Com:  0.780D-01 0.922D+00
 Coeff:      0.780D-01 0.922D+00
 Gap=     0.202 Goal=   None    Shift=    0.000
 RMSDP=4.29D-06 MaxDP=1.39D-04 DE=-1.02D-06 OVMax= 1.68D-04

 Cycle   9  Pass 1  IDiag  1:
 RMSU=  2.51D-06    CP:  1.00D+00  1.03D+00
 E= -539.229813535251     Delta-E=       -0.000000037899 Rises=F Damp=F
 DIIS: error= 1.86D-05 at cycle   3 NSaved=   3.
 NSaved= 3 IEnMin= 3 EnMin= -539.229813535251     IErMin= 3 ErrMin= 1.86D-05
 ErrMax= 1.86D-05  0.00D+00 EMaxC= 1.00D-01 BMatC= 7.58D-08 BMatP= 8.49D-08
 IDIUse=1 WtCom= 1.00D+00 WtEn= 0.00D+00
 Coeff-Com: -0.149D-01 0.487D+00 0.528D+00
 Coeff:     -0.149D-01 0.487D+00 0.528D+00
 Gap=     0.202 Goal=   None    Shift=    0.000
 RMSDP=1.12D-06 MaxDP=4.12D-05 DE=-3.79D-08 OVMax= 8.15D-05

 Cycle  10  Pass 1  IDiag  1:
 RMSU=  7.06D-07    CP:  1.00D+00  1.04D+00  6.61D-01
 E= -539.229813612511     Delta-E=       -0.000000077260 Rises=F Damp=F
 DIIS: error= 6.03D-06 at cycle   4 NSaved=   4.
 NSaved= 4 IEnMin= 4 EnMin= -539.229813612511     IErMin= 4 ErrMin= 6.03D-06
 ErrMax= 6.03D-06  0.00D+00 EMaxC= 1.00D-01 BMatC= 9.23D-10 BMatP= 7.58D-08
 IDIUse=1 WtCom= 1.00D+00 WtEn= 0.00D+00
 Coeff-Com: -0.304D-02-0.786D-02 0.266D-01 0.984D+00
 Coeff:     -0.304D-02-0.786D-02 0.266D-01 0.984D+00
 Gap=     0.202 Goal=   None    Shift=    0.000
 RMSDP=3.43D-07 MaxDP=8.04D-06 DE=-7.73D-08 OVMax= 4.34D-05

 Cycle  11  Pass 1  IDiag  1:
 RMSU=  2.88D-07    CP:  1.00D+00  1.04D+00  7.09D-01  1.19D+00
 E= -539.229813615612     Delta-E=       -0.000000003101 Rises=F Damp=F
 DIIS: error= 3.37D-06 at cycle   5 NSaved=   5.
 NSaved= 5 IEnMin= 5 EnMin= -539.229813615612     IErMin= 5 ErrMin= 3.37D-06
 ErrMax= 3.37D-06  0.00D+00 EMaxC= 1.00D-01 BMatC= 8.00D-10 BMatP= 9.23D-10
 IDIUse=1 WtCom= 1.00D+00 WtEn= 0.00D+00
 Coeff-Com:  0.295D-02-0.168D+00-0.157D+00 0.655D+00 0.668D+00
 Coeff:      0.295D-02-0.168D+00-0.157D+00 0.655D+00 0.668D+00
 Gap=     0.202 Goal=   None    Shift=    0.000
 RMSDP=2.05D-07 MaxDP=5.65D-06 DE=-3.10D-09 OVMax= 2.63D-05

 Cycle  12  Pass 1  IDiag  1:
 RMSU=  1.31D-07    CP:  1.00D+00  1.04D+00  7.30D-01  1.40D+00  9.48D-01
 E= -539.229813617171     Delta-E=       -0.000000001559 Rises=F Damp=F
 DIIS: error= 4.24D-07 at cycle   6 NSaved=   6.
 NSaved= 6 IEnMin= 6 EnMin= -539.229813617171     IErMin= 6 ErrMin= 4.24D-07
 ErrMax= 4.24D-07  0.00D+00 EMaxC= 1.00D-01 BMatC= 1.97D-11 BMatP= 8.00D-10
 IDIUse=1 WtCom= 1.00D+00 WtEn= 0.00D+00
 Coeff-Com:  0.122D-02-0.514D-01-0.515D-01 0.103D+00 0.202D+00 0.796D+00
 Coeff:      0.122D-02-0.514D-01-0.515D-01 0.103D+00 0.202D+00 0.796D+00
 Gap=     0.202 Goal=   None    Shift=    0.000
 RMSDP=4.13D-08 MaxDP=1.00D-06 DE=-1.56D-09 OVMax= 4.24D-06

 Cycle  13  Pass 1  IDiag  1:
 RMSU=  1.98D-08    CP:  1.00D+00  1.04D+00  7.33D-01  1.42D+00  1.04D+00
                    CP:  1.04D+00
 E= -539.229813617204     Delta-E=       -0.000000000034 Rises=F Damp=F
 DIIS: error= 1.23D-07 at cycle   7 NSaved=   7.
 NSaved= 7 IEnMin= 7 EnMin= -539.229813617204     IErMin= 7 ErrMin= 1.23D-07
 ErrMax= 1.23D-07  0.00D+00 EMaxC= 1.00D-01 BMatC= 2.64D-12 BMatP= 1.97D-11
 IDIUse=1 WtCom= 1.00D+00 WtEn= 0.00D+00
 Coeff-Com:  0.527D-03-0.208D-01-0.213D-01 0.318D-01 0.814D-01 0.398D+00
 Coeff-Com:  0.530D+00
 Coeff:      0.527D-03-0.208D-01-0.213D-01 0.318D-01 0.814D-01 0.398D+00
 Coeff:      0.530D+00
 Gap=     0.202 Goal=   None    Shift=    0.000
 RMSDP=1.01D-08 MaxDP=3.78D-07 DE=-3.37D-11 OVMax= 1.04D-06

 Cycle  14  Pass 1  IDiag  1:
 RMSU=  6.50D-09    CP:  1.00D+00  1.04D+00  7.33D-01  1.42D+00  1.04D+00
                    CP:  1.07D+00  7.08D-01
 E= -539.229813617208     Delta-E=       -0.000000000004 Rises=F Damp=F
 DIIS: error= 4.43D-08 at cycle   8 NSaved=   8.
 NSaved= 8 IEnMin= 8 EnMin= -539.229813617208     IErMin= 8 ErrMin= 4.43D-08
 ErrMax= 4.43D-08  0.00D+00 EMaxC= 1.00D-01 BMatC= 2.44D-13 BMatP= 2.64D-12
 IDIUse=1 WtCom= 1.00D+00 WtEn= 0.00D+00
 Coeff-Com: -0.172D-04 0.134D-02 0.980D-03-0.692D-02-0.482D-02 0.162D-01
 Coeff-Com:  0.236D+00 0.757D+00
 Coeff:     -0.172D-04 0.134D-02 0.980D-03-0.692D-02-0.482D-02 0.162D-01
 Coeff:      0.236D+00 0.757D+00
 Gap=     0.202 Goal=   None    Shift=    0.000
 RMSDP=3.47D-09 MaxDP=8.12D-08 DE=-3.64D-12 OVMax= 2.22D-07

 SCF Done:  E(RCAM-B3LYP) =  -539.229813617     A.U. after   14 cycles
            NFock= 14  Conv=0.35D-08     -V/T= 2.0061
 KE= 5.359537171911D+02 PE=-2.789901634564D+03 EE= 9.447827358976D+02
 Leave Link  502 at Tue Aug 27 23:21:50 2024, MaxMem=   104857600 cpu:             243.1 elap:               9.0
 (Enter /curc/sw/install/gaussian/g16_c.02/g16/l801.exe)
 DoSCS=F DFT=T ScalE2(SS,OS)=  1.000000  1.000000
 ExpMin= 1.22D-01 ExpMax= 6.67D+03 ExpMxC= 2.28D+02 IAcc=3 IRadAn=         5 AccDes= 0.00D+00
 HarFok:  IExCor=  205 AccDes= 0.00D+00 IRadAn=         5 IDoV=-2 UseB2=F ITyADJ=14
 ICtDFT= 12500011 ScaDFX=  1.000000  1.000000  1.000000  1.000000
 Largest valence mixing into a core orbital is  3.77D-05
 Largest core mixing into a valence orbital is  2.31D-05
 Range of M.O.s used for correlation:    15   246
 NBasis=   246 NAE=    47 NBE=    47 NFC=    14 NFV=     0
 NROrb=    232 NOA=    33 NOB=    33 NVA=   199 NVB=   199

 **** Warning!!: The largest alpha MO coefficient is  0.15186176D+02

 Leave Link  801 at Tue Aug 27 23:21:50 2024, MaxMem=   104857600 cpu:               0.8 elap:               0.4
 (Enter /curc/sw/install/gaussian/g16_c.02/g16/l914.exe)
 RHF ground state
 Two-electron integrals replicated using symmetry.
 MDV=   104857600 DFT=T DoStab=F Mixed=T DoRPA=T DoScal=F NonHer=T
 Making orbital integer symmetry assigments:
 Orbital symmetries:
       Occupied  (A) (A) (A) (A) (A) (A) (A) (A) (A) (A) (A) (A)
                 (A) (A) (A) (A) (A) (A) (A) (A) (A) (A) (A) (A)
                 (A) (A) (A) (A) (A) (A) (A) (A) (A) (A) (A) (A)
                 (A) (A) (A) (A) (A) (A) (A) (A) (A) (A) (A)
       Virtual   (A) (A) (A) (A) (A) (A) (A) (A) (A) (A) (A) (A)
                 (A) (A) (A) (A) (A) (A) (A) (A) (A) (A) (A) (A)
                 (A) (A) (A) (A) (A) (A) (A) (A) (A) (A) (A) (A)
                 (A) (A) (A) (A) (A) (A) (A) (A) (A) (A) (A) (A)
                 (A) (A) (A) (A) (A) (A) (A) (A) (A) (A) (A) (A)
                 (A) (A) (A) (A) (A) (A) (A) (A) (A) (A) (A) (A)
                 (A) (A) (A) (A) (A) (A) (A) (A) (A) (A) (A) (A)
                 (A) (A) (A) (A) (A) (A) (A) (A) (A) (A) (A) (A)
                 (A) (A) (A) (A) (A) (A) (A) (A) (A) (A) (A) (A)
                 (A) (A) (A) (A) (A) (A) (A) (A) (A) (A) (A) (A)
                 (A) (A) (A) (A) (A) (A) (A) (A) (A) (A) (A) (A)
                 (A) (A) (A) (A) (A) (A) (A) (A) (A) (A) (A) (A)
                 (A) (A) (A) (A) (A) (A) (A) (A) (A) (A) (A) (A)
                 (A) (A) (A) (A) (A) (A) (A) (A) (A) (A) (A) (A)
                 (A) (A) (A) (A) (A) (A) (A) (A) (A) (A) (A) (A)
                 (A) (A) (A) (A) (A) (A) (A) (A) (A) (A) (A) (A)
                 (A) (A) (A) (A) (A) (A) (A)
   160 initial guesses have been made.
 Convergence on wavefunction:    0.001000000000000
 Davidson Disk Diagonalization:  ConvIn= 1.00D-03 SkipCon=T Conv= 1.00D-03.
 Max sub-space:  2400 roots to seek:   160 dimension of matrix:        13134
 Iteration     1 Dimension   160 NMult     0 NNew    160
 CISAX will form    12 AO SS matrices at one time.
 NMat=    12 NSing=    12 JSym2X= 0.
 FoFJK:  IHMeth= 1 ICntrl=       0 DoSepK=T KAlg= 0 I1Cent=           0 FoldK=F
 IRaf=         1 NMat=      24 IRICut=       1 DoRegI=T DoRafI=F ISym2E= 0 IDoP0=3 IntGTp=3.
 FoFCou: FMM=F IPFlag=           0 FMFlag=      100000 FMFlg1=           0
         NFxFlg=           0 DoJE=F BraDBF=F KetDBF=F FulRan=T
         wScrn=  0.000000 ICntrl=       500 IOpCl=  0 I1Cent=           0 NGrid=           0
         NMat0=   12 NMatS0=     12 NMatT0=    0 NMatD0=   12 NMtDS0=    0 NMtDT0=    0
 Symmetry not used in FoFCou.
 NMat=    12 NSing=    12 JSym2X= 0.
 NMat=    12 NSing=    12 JSym2X= 0.
 NMat=    12 NSing=    12 JSym2X= 0.
 NMat=    12 NSing=    12 JSym2X= 0.
 NMat=    12 NSing=    12 JSym2X= 0.
 NMat=    12 NSing=    12 JSym2X= 0.
 NMat=    12 NSing=    12 JSym2X= 0.
 NMat=    12 NSing=    12 JSym2X= 0.
 NMat=    12 NSing=    12 JSym2X= 0.
 NMat=    12 NSing=    12 JSym2X= 0.
 NMat=    12 NSing=    12 JSym2X= 0.
 NMat=    12 NSing=    12 JSym2X= 0.
 NMat=     4 NSing=     4 JSym2X= 0.
 New state      2 was old state      3
 New state      3 was old state      4
 New state      4 was old state      5
 New state      5 was old state      6
 New state      6 was old state     10
 New state      7 was old state      2
 New state      8 was old state     16
 New state      9 was old state     18
 New state     10 was old state     12
 New state     11 was old state     15
 New state     12 was old state      7
 New state     13 was old state      9
 New state     14 was old state     13
 New state     15 was old state      8
 New state     16 was old state     19
 New state     17 was old state     22
 New state     18 was old state     14
 New state     19 was old state     28
 New state     22 was old state     24
 New state     23 was old state     37
 New state     24 was old state     17
 New state     25 was old state     26
 New state     26 was old state     39
 New state     27 was old state     41
 New state     28 was old state     31
 New state     29 was old state     30
 New state     30 was old state     27
 New state     31 was old state     45
 New state     32 was old state     25
 New state     33 was old state     23
 New state     34 was old state     29
 New state     35 was old state     34
 New state     36 was old state     32
 New state     37 was old state     11
 New state     38 was old state     35
 New state     39 was old state     52
 New state     40 was old state     56
 Excitation Energies [eV] at current iteration:
 Root      1 :     3.614682272264180
 Root      2 :     4.086975079915873
 Root      3 :     5.142393004551187
 Root      4 :     5.490177808917442
 Root      5 :     5.884014706763207
 Root      6 :     5.925779977556384
 Root      7 :     6.121820398383688
 Root      8 :     6.540957572390788
 Root      9 :     6.661723047944184
 Root     10 :     6.915657423951353
 Root     11 :     6.962790421284835
 Root     12 :     7.011047238426107
 Root     13 :     7.020655503632410
 Root     14 :     7.044111523512503
 Root     15 :     7.156346545557834
 Root     16 :     7.163896665032065
 Root     17 :     7.256264562419577
 Root     18 :     7.436717192381189
 Root     19 :     7.743047756762206
 Root     20 :     7.810664641255987
 Root     21 :     7.837898037762165
 Root     22 :     8.195084361448449
 Root     23 :     8.207412843995481
 Root     24 :     8.223589002847788
 Root     25 :     8.251836812749911
 Root     26 :     8.345751157418983
 Root     27 :     8.369922747476810
 Root     28 :     8.503356801532970
 Root     29 :     8.559312979029201
 Root     30 :     8.564829789354507
 Root     31 :     8.638264565417137
 Root     32 :     8.659558356901400
 Root     33 :     8.729880440920210
 Root     34 :     8.778790198465305
 Root     35 :     8.781304680455561
 Root     36 :     8.806730632041566
 Root     37 :     8.815262901322326
 Root     38 :     8.891127689914503
 Root     39 :     8.908410491268357
 Root     40 :     8.913849755877468
 Root     41 :     9.008145137118719
 Root     42 :     9.075155068811966
 Root     43 :     9.132589796576269
 Root     44 :     9.145131376711193
 Root     45 :     9.189690037564231
 Root     46 :     9.190913765100072
 Root     47 :     9.260920895144995
 Root     48 :     9.352527707900721
 Root     49 :     9.373647694936931
 Root     50 :     9.376664866208698
 Root     51 :     9.499244059314385
 Root     52 :     9.518182302958342
 Root     53 :     9.553856166447101
 Root     54 :     9.579568570956598
 Root     55 :     9.584442971070933
 Root     56 :     9.621100626316098
 Root     57 :     9.673243467856716
 Root     58 :     9.732682758308636
 Root     59 :     9.829012235155977
 Root     60 :     9.856374666243326
 Root     61 :    10.057727894468611
 Root     62 :    10.097119174126229
 Root     63 :    10.140266278379066
 Root     64 :    10.152319403419220
 Root     65 :    10.157504995011450
 Root     66 :    10.280769607278723
 Root     67 :    10.291567029813931
 Root     68 :    10.323441664551453
 Root     69 :    10.397856149550394
 Root     70 :    10.442260358600999
 Root     71 :    10.641451007389653
 Root     72 :    10.662301993250672
 Root     73 :    10.673018270104901
 Root     74 :    10.683453601180947
 Root     75 :    10.719521406392200
 Root     76 :    10.742270357820649
 Root     77 :    10.765091287783889
 Root     78 :    10.833958136393850
 Root     79 :    10.852100012792107
 Root     80 :    10.860286540139075
 Root     81 :    10.911304408767013
 Root     82 :    10.911675591687898
 Root     83 :    10.916300259357147
 Root     84 :    10.919420856528559
 Root     85 :    10.962529959616264
 Root     86 :    11.023320173941194
 Root     87 :    11.046322922409523
 Root     88 :    11.060060809731239
 Root     89 :    11.093573859151386
 Root     90 :    11.132670901564486
 Root     91 :    11.139952911811569
 Root     92 :    11.181547686211466
 Root     93 :    11.219350047857146
 Root     94 :    11.258568254150926
 Root     95 :    11.326974016966885
 Root     96 :    11.361375130047108
 Root     97 :    11.381284876039460
 Root     98 :    11.386313837457042
 Root     99 :    11.387534747349926
 Root    100 :    11.413233110636876
 Root    101 :    11.441418679169306
 Root    102 :    11.448601158604692
 Root    103 :    11.479872711136105
 Root    104 :    11.510849037547018
 Root    105 :    11.556613501182106
 Root    106 :    11.580087656166153
 Root    107 :    11.628415384333204
 Root    108 :    11.634929137050346
 Root    109 :    11.694435344530802
 Root    110 :    11.713389942451769
 Root    111 :    11.714435307423926
 Root    112 :    11.728790191190354
 Root    113 :    11.762982341254908
 Root    114 :    11.783839533174154
 Root    115 :    11.811291251623175
 Root    116 :    11.860078015249224
 Root    117 :    11.954689047620054
 Root    118 :    11.959073255734646
 Root    119 :    12.047339994155262
 Root    120 :    12.054242906809787
 Root    121 :    12.094697015048952
 Root    122 :    12.114551960194346
 Root    123 :    12.145248006797333
 Root    124 :    12.161272389104974
 Root    125 :    12.173027412774355
 Root    126 :    12.248646160747704
 Root    127 :    12.264590788002419
 Root    128 :    12.288612719911244
 Root    129 :    12.340732957714561
 Root    130 :    12.435656758513128
 Root    131 :    12.476893630088506
 Root    132 :    12.505481764428183
 Root    133 :    12.533071040685030
 Root    134 :    12.544567676381611
 Root    135 :    12.557800492965358
 Root    136 :    12.569819197822003
 Root    137 :    12.590696472361211
 Root    138 :    12.665035178198833
 Root    139 :    12.682733551735273
 Root    140 :    12.727499531721092
 Root    141 :    12.796977986162688
 Root    142 :    12.823972020940896
 Root    143 :    12.824646864433953
 Root    144 :    12.833362978246171
 Root    145 :    12.836730719622253
 Root    146 :    12.881541789204238
 Root    147 :    12.916979912511922
 Root    148 :    12.917713954795003
 Root    149 :    12.936567859729470
 Root    150 :    12.983415404431245
 Root    151 :    13.120701347230899
 Root    152 :    13.133175840015486
 Root    153 :    13.145647334160156
 Root    154 :    13.154585718662640
 Root    155 :    13.155612271097349
 Root    156 :    13.195019434768628
 Root    157 :    13.211427191629408
 Root    158 :    13.223471133478910
 Root    159 :    13.226332862445275
 Root    160 :    13.264043442319272
 Iteration     2 Dimension   240 NMult   160 NNew     80
 CISAX will form    12 AO SS matrices at one time.
 NMat=    12 NSing=    12 JSym2X= 0.
 NMat=    12 NSing=    12 JSym2X= 0.
 NMat=    12 NSing=    12 JSym2X= 0.
 NMat=    12 NSing=    12 JSym2X= 0.
 NMat=    12 NSing=    12 JSym2X= 0.
 NMat=    12 NSing=    12 JSym2X= 0.
 NMat=     8 NSing=     8 JSym2X= 0.
 Root      1 not converged, maximum delta is    0.049700816283609
 Root      2 not converged, maximum delta is    0.028446657963557
 New state      3 was old state      4
 Root      3 not converged, maximum delta is    0.150403329011489
 New state      4 was old state      3
 Root      4 not converged, maximum delta is    0.142831498163214
 New state      5 was old state      7
 Root      5 not converged, maximum delta is    0.037936714104902
 New state      6 was old state      5
 Root      6 not converged, maximum delta is    0.126493646475893
 New state      7 was old state      6
 Root      7 not converged, maximum delta is    0.013474513283713
 New state      8 was old state     15
 Root      8 not converged, maximum delta is    0.185808876983383
 New state      9 was old state      8
 Root      9 not converged, maximum delta is    0.044396970155237
 New state     10 was old state     12
 Root     10 not converged, maximum delta is    0.188622258526945
 New state     11 was old state      9
 Root     11 not converged, maximum delta is    0.035058888431606
 New state     12 was old state     10
 Root     12 not converged, maximum delta is    0.027826434674814
 Root     13 not converged, maximum delta is    0.203971127027451
 New state     14 was old state     11
 Root     14 not converged, maximum delta is    0.019239955881848
 New state     15 was old state     14
 Root     15 not converged, maximum delta is    0.018999338029315
 Root     16 not converged, maximum delta is    0.035690853054991
 Root     17 not converged, maximum delta is    0.032732532552621
 Root     18 not converged, maximum delta is    0.183619455319007
 New state     19 was old state     37
 Root     19 not converged, maximum delta is    0.093753707369119
 New state     20 was old state     19
 Root     20 not converged, maximum delta is    0.039912094974469
 New state     21 was old state     24
 Root     21 not converged, maximum delta is    0.190511339113089
 Root     22 not converged, maximum delta is    0.143628666140746
 New state     23 was old state     20
 Root     23 not converged, maximum delta is    0.024129232210205
 New state     24 was old state     21
 Root     24 not converged, maximum delta is    0.016613635257499
 Root     25 not converged, maximum delta is    0.159953703835214
 New state     26 was old state     23
 Root     26 not converged, maximum delta is    0.032297444048719
 New state     27 was old state     26
 Root     27 not converged, maximum delta is    0.054621802004732
 New state     28 was old state     27
 Root     28 not converged, maximum delta is    0.069134900008459
 New state     29 was old state     32
 Root     29 not converged, maximum delta is    0.378188814878041
 New state     30 was old state     31
 Root     30 not converged, maximum delta is    0.398095249344609
 New state     31 was old state     33
 Root     31 not converged, maximum delta is    0.350877701818912
 New state     32 was old state     28
 Root     32 not converged, maximum delta is    0.024284341987128
 New state     33 was old state     29
 Root     33 not converged, maximum delta is    0.422188915952336
 New state     34 was old state     30
 Root     34 not converged, maximum delta is    0.029509224176349
 New state     35 was old state     36
 Root     35 not converged, maximum delta is    0.504816832328860
 New state     36 was old state     39
 Root     36 not converged, maximum delta is    0.102518132345169
 New state     37 was old state     34
 Root     37 not converged, maximum delta is    0.025896768180881
 New state     38 was old state     35
 Root     38 not converged, maximum delta is    0.185943746479730
 New state     39 was old state     40
 Root     39 not converged, maximum delta is    0.291995191411308
 New state     40 was old state     49
 Root     40 not converged, maximum delta is    0.504435193631846
 Excitation Energies [eV] at current iteration:
 Root      1 :     3.247258766699854   Change is   -0.367423505564326
 Root      2 :     4.020671437268461   Change is   -0.066303642647413
 Root      3 :     5.023023797626671   Change is   -0.467154011290772
 Root      4 :     5.127746503762537   Change is   -0.014646500788651
 Root      5 :     5.501166930087057   Change is   -0.620653468296632
 Root      6 :     5.815977653727812   Change is   -0.068037053035395
 Root      7 :     5.852463083223170   Change is   -0.073316894333214
 Root      8 :     6.350761021872143   Change is   -0.805585523685691
 Root      9 :     6.418933400251908   Change is   -0.122024172138880
 Root     10 :     6.464511113780585   Change is   -0.546536124645522
 Root     11 :     6.594284995855282   Change is   -0.067438052088902
 Root     12 :     6.869673727710028   Change is   -0.045983696241324
 Root     13 :     6.913153185333435   Change is   -0.107502318298975
 Root     14 :     6.921902038109418   Change is   -0.040888383175417
 Root     15 :     7.001450673779242   Change is   -0.042660849733261
 Root     16 :     7.067293576868580   Change is   -0.096603088163486
 Root     17 :     7.165290947296603   Change is   -0.090973615122974
 Root     18 :     7.229663970710694   Change is   -0.207053221670495
 Root     19 :     7.539247755550019   Change is   -1.276015145772307
 Root     20 :     7.603956787288519   Change is   -0.139090969473687
 Root     21 :     7.671767102942819   Change is   -0.551821899904970
 Root     22 :     7.744998815737391   Change is   -0.450085545711058
 Root     23 :     7.757266789045869   Change is   -0.053397852210118
 Root     24 :     7.799110969552480   Change is   -0.038787068209685
 Root     25 :     8.030403632377867   Change is   -0.221433180372044
 Root     26 :     8.106889055446192   Change is   -0.100523788549290
 Root     27 :     8.190688875476605   Change is   -0.155062281942378
 Root     28 :     8.247975520192506   Change is   -0.121947227284303
 Root     29 :     8.284487503479379   Change is   -0.375070853422019
 Root     30 :     8.394693747088471   Change is   -0.243570818328666
 Root     31 :     8.409635118182878   Change is   -0.320245322737331
 Root     32 :     8.443045324600170   Change is   -0.060311476932799
 Root     33 :     8.508228710276816   Change is   -0.051084268752385
 Root     34 :     8.518066637885241   Change is   -0.046763151469265
 Root     35 :     8.707414094949895   Change is   -0.099316537091670
 Root     36 :     8.716686059532668   Change is   -0.191724431735691
 Root     37 :     8.730339294295883   Change is   -0.048450904169423
 Root     38 :     8.736776779059873   Change is   -0.044527901395687
 Root     39 :     8.754644581548725   Change is   -0.159205174328744
 Root     40 :     8.787419446888354   Change is   -0.586228248048578
 Iteration     3 Dimension   320 NMult   240 NNew     80
 CISAX will form    12 AO SS matrices at one time.
 NMat=    12 NSing=    12 JSym2X= 0.
 NMat=    12 NSing=    12 JSym2X= 0.
 NMat=    12 NSing=    12 JSym2X= 0.
 NMat=    12 NSing=    12 JSym2X= 0.
 NMat=    12 NSing=    12 JSym2X= 0.
 NMat=    12 NSing=    12 JSym2X= 0.
 NMat=     8 NSing=     8 JSym2X= 0.
 Root      1 not converged, maximum delta is    0.003864912259171
 Root      2 not converged, maximum delta is    0.001151526545392
 Root      3 not converged, maximum delta is    0.010416462610471
 Root      4 not converged, maximum delta is    0.009707897785552
 Root      5 not converged, maximum delta is    0.011539062438662
 Root      6 not converged, maximum delta is    0.005317215810799
 Root      7 not converged, maximum delta is    0.001694216998873
 Root      8 not converged, maximum delta is    0.009908528050493
 Root      9 not converged, maximum delta is    0.004717559362110
 Root     10 not converged, maximum delta is    0.009391533961739
 Root     11 not converged, maximum delta is    0.001750965226058
 Root     12 not converged, maximum delta is    0.001661009528400
 Root     13 not converged, maximum delta is    0.008224106558418
 Root     14 not converged, maximum delta is    0.003117971909898
 Root     15 not converged, maximum delta is    0.001733697997236
 Root     16 not converged, maximum delta is    0.001842593997073
 Root     17 not converged, maximum delta is    0.003123521547214
 Root     18 not converged, maximum delta is    0.014215700612122
 Root     19 not converged, maximum delta is    0.029945456133318
 Root     20 not converged, maximum delta is    0.004428623259853
 Root     21 not converged, maximum delta is    0.008795160517961
 Root     22 not converged, maximum delta is    0.002810110979842
 Root     23 not converged, maximum delta is    0.003380385019018
 Root     24 not converged, maximum delta is    0.002871522309392
 Root     25 not converged, maximum delta is    0.008151074204754
 Root     26 not converged, maximum delta is    0.005301167863932
 Root     27 not converged, maximum delta is    0.008769250904185
 Root     28 not converged, maximum delta is    0.211337171095471
 Root     29 not converged, maximum delta is    0.263765043874252
 Root     30 not converged, maximum delta is    0.163728443032277
 Root     31 not converged, maximum delta is    0.212526317873647
 Root     32 not converged, maximum delta is    0.002475972283267
 Root     33 not converged, maximum delta is    0.008743089651441
 Root     34 not converged, maximum delta is    0.003315137811019
 Root     35 not converged, maximum delta is    0.097548507012747
 Root     36 not converged, maximum delta is    0.013336082503803
 Root     37 not converged, maximum delta is    0.003107814747207
 Root     38 not converged, maximum delta is    0.071117131974536
 Root     39 not converged, maximum delta is    0.100961360222465
 Root     40 not converged, maximum delta is    0.104706928057080
 Excitation Energies [eV] at current iteration:
 Root      1 :     3.238355992057990   Change is   -0.008902774641864
 Root      2 :     4.019712600426375   Change is   -0.000958836842084
 Root      3 :     5.013613430716166   Change is   -0.009410366910505
 Root      4 :     5.127135598492341   Change is   -0.000610905270196
 Root      5 :     5.465078797592033   Change is   -0.036088132495024
 Root      6 :     5.813818145253770   Change is   -0.002159508474042
 Root      7 :     5.850835066938901   Change is   -0.001628016284270
 Root      8 :     6.336951792476638   Change is   -0.013809229395505
 Root      9 :     6.416385210840271   Change is   -0.002548189411637
 Root     10 :     6.453466291357132   Change is   -0.011044822423453
 Root     11 :     6.593266619310989   Change is   -0.001018376544293
 Root     12 :     6.868850138662948   Change is   -0.000823589047080
 Root     13 :     6.908711671995056   Change is   -0.004441513338379
 Root     14 :     6.921230352501771   Change is   -0.000671685607647
 Root     15 :     7.000671367226805   Change is   -0.000779306552437
 Root     16 :     7.065151002992193   Change is   -0.002142573876386
 Root     17 :     7.163425642176625   Change is   -0.001865305119978
 Root     18 :     7.225336787244390   Change is   -0.004327183466304
 Root     19 :     7.481725749199700   Change is   -0.057522006350320
 Root     20 :     7.600195151137472   Change is   -0.003761636151047
 Root     21 :     7.652780271301933   Change is   -0.018986831640886
 Root     22 :     7.737988633116587   Change is   -0.007010182620804
 Root     23 :     7.755948294620425   Change is   -0.001318494425444
 Root     24 :     7.798253808195557   Change is   -0.000857161356923
 Root     25 :     8.024916990349681   Change is   -0.005486642028186
 Root     26 :     8.103764660059431   Change is   -0.003124395386760
 Root     27 :     8.184805797768099   Change is   -0.005883077708506
 Root     28 :     8.242743652863497   Change is   -0.005231867329010
 Root     29 :     8.253206355248695   Change is   -0.031281148230686
 Root     30 :     8.380966027678300   Change is   -0.013727719410171
 Root     31 :     8.390873242982247   Change is   -0.018761875200631
 Root     32 :     8.441674019203573   Change is   -0.001371305396598
 Root     33 :     8.506669127529712   Change is   -0.001559582747104
 Root     34 :     8.517119022506980   Change is   -0.000947615378261
 Root     35 :     8.695129755462000   Change is   -0.012284339487896
 Root     36 :     8.707634040299295   Change is   -0.009052019233372
 Root     37 :     8.728979134662717   Change is   -0.001360159633165
 Root     38 :     8.734050607070893   Change is   -0.002726171988981
 Root     39 :     8.749413481823030   Change is   -0.005231099725694
 Root     40 :     8.770684452067011   Change is   -0.016734994821344
 Iteration     4 Dimension   400 NMult   320 NNew     80
 CISAX will form    12 AO SS matrices at one time.
 NMat=    12 NSing=    12 JSym2X= 0.
 NMat=    12 NSing=    12 JSym2X= 0.
 NMat=    12 NSing=    12 JSym2X= 0.
 NMat=    12 NSing=    12 JSym2X= 0.
 NMat=    12 NSing=    12 JSym2X= 0.
 NMat=    12 NSing=    12 JSym2X= 0.
 NMat=     8 NSing=     8 JSym2X= 0.
 Root      1 has converged.
 Root      2 has converged.
 Root      3 has converged.
 Root      4 has converged.
 Root      5 not converged, maximum delta is    0.001003569124900
 Root      6 has converged.
 Root      7 has converged.
 Root      8 has converged.
 Root      9 has converged.
 Root     10 has converged.
 Root     11 has converged.
 Root     12 has converged.
 Root     13 has converged.
 Root     14 has converged.
 Root     15 has converged.
 Root     16 has converged.
 Root     17 has converged.
 Root     18 has converged.
 Root     19 not converged, maximum delta is    0.002294071747765
 Root     20 has converged.
 Root     21 not converged, maximum delta is    0.001129434757734
 Root     22 not converged, maximum delta is    0.001009670506950
 Root     23 has converged.
 Root     24 has converged.
 Root     25 has converged.
 Root     26 has converged.
 Root     27 not converged, maximum delta is    0.001844975425285
 Root     28 not converged, maximum delta is    0.012146739986824
 Root     29 not converged, maximum delta is    0.015335703985805
 Root     30 not converged, maximum delta is    0.004263816747579
 Root     31 not converged, maximum delta is    0.004327430034148
 Root     32 has converged.
 Root     33 has converged.
 Root     34 has converged.
 Root     35 not converged, maximum delta is    0.001418769593973
 Root     36 not converged, maximum delta is    0.008150490183408
 Root     37 has converged.
 Root     38 not converged, maximum delta is    0.003701941437944
 Root     39 not converged, maximum delta is    0.004443393222214
 Root     40 not converged, maximum delta is    0.001635836294790
 Excitation Energies [eV] at current iteration:
 Root      1 :     3.238205663180794   Change is   -0.000150328877196
 Root      2 :     4.019694905280818   Change is   -0.000017695145558
 Root      3 :     5.013478823132878   Change is   -0.000134607583288
 Root      4 :     5.127129528395107   Change is   -0.000006070097234
 Root      5 :     5.464388808767446   Change is   -0.000689988824587
 Root      6 :     5.813782386901219   Change is   -0.000035758352551
 Root      7 :     5.850782672585671   Change is   -0.000052394353229
 Root      8 :     6.336663919208145   Change is   -0.000287873268493
 Root      9 :     6.416352785578551   Change is   -0.000032425261720
 Root     10 :     6.453148449546640   Change is   -0.000317841810492
 Root     11 :     6.593243774142543   Change is   -0.000022845168447
 Root     12 :     6.868836316501422   Change is   -0.000013822161525
 Root     13 :     6.908555400059959   Change is   -0.000156271935097
 Root     14 :     6.921220541031681   Change is   -0.000009811470090
 Root     15 :     7.000660405982384   Change is   -0.000010961244421
 Root     16 :     7.065104906656994   Change is   -0.000046096335199
 Root     17 :     7.163389228098670   Change is   -0.000036414077955
 Root     18 :     7.225211790753371   Change is   -0.000124996491019
 Root     19 :     7.479853345513451   Change is   -0.001872403686249
 Root     20 :     7.600124299051295   Change is   -0.000070852086177
 Root     21 :     7.652082929100774   Change is   -0.000697342201158
 Root     22 :     7.737755670556164   Change is   -0.000232962560422
 Root     23 :     7.755905078981918   Change is   -0.000043215638507
 Root     24 :     7.798235694364821   Change is   -0.000018113830736
 Root     25 :     8.024793205331711   Change is   -0.000123785017970
 Root     26 :     8.103685073145444   Change is   -0.000079586913987
 Root     27 :     8.184516342498114   Change is   -0.000289455269985
 Root     28 :     8.242460812182731   Change is   -0.000282840680765
 Root     29 :     8.252659689524114   Change is   -0.000546665724581
 Root     30 :     8.380420297255105   Change is   -0.000545730423195
 Root     31 :     8.390316598754634   Change is   -0.000556644227614
 Root     32 :     8.441632888776898   Change is   -0.000041130426676
 Root     33 :     8.506633872524795   Change is   -0.000035255004918
 Root     34 :     8.517095029381224   Change is   -0.000023993125757
 Root     35 :     8.694882332267712   Change is   -0.000247423194289
 Root     36 :     8.706881115364517   Change is   -0.000752924934778
 Root     37 :     8.728944615511766   Change is   -0.000034519150951
 Root     38 :     8.733926698560397   Change is   -0.000123908510494
 Root     39 :     8.749226901872580   Change is   -0.000186579950451
 Root     40 :     8.770457677864428   Change is   -0.000226774202581
 Iteration     5 Dimension   428 NMult   400 NNew     28
 CISAX will form    10 AO SS matrices at one time.
 NMat=    10 NSing=    10 JSym2X= 0.
 NMat=    10 NSing=    10 JSym2X= 0.
 NMat=     8 NSing=     8 JSym2X= 0.
 Root      1 has converged.
 Root      2 has converged.
 Root      3 has converged.
 Root      4 has converged.
 Root      5 has converged.
 Root      6 has converged.
 Root      7 has converged.
 Root      8 has converged.
 Root      9 has converged.
 Root     10 has converged.
 Root     11 has converged.
 Root     12 has converged.
 Root     13 has converged.
 Root     14 has converged.
 Root     15 has converged.
 Root     16 has converged.
 Root     17 has converged.
 Root     18 has converged.
 Root     19 has converged.
 Root     20 has converged.
 Root     21 has converged.
 Root     22 has converged.
 Root     23 has converged.
 Root     24 has converged.
 Root     25 has converged.
 Root     26 has converged.
 Root     27 has converged.
 Root     28 has converged.
 Root     29 has converged.
 Root     30 has converged.
 Root     31 has converged.
 Root     32 has converged.
 Root     33 has converged.
 Root     34 has converged.
 Root     35 has converged.
 Root     36 not converged, maximum delta is    0.004864856648226
 Root     37 has converged.
 Root     38 has converged.
 Root     39 has converged.
 Root     40 has converged.
 Excitation Energies [eV] at current iteration:
 Root      1 :     3.238204511894700   Change is   -0.000001151286094
 Root      2 :     4.019694843372265   Change is   -0.000000061908553
 Root      3 :     5.013477965033913   Change is   -0.000000858098965
 Root      4 :     5.127129478211629   Change is   -0.000000050183478
 Root      5 :     5.464379519873749   Change is   -0.000009288893698
 Root      6 :     5.813782307568406   Change is   -0.000000079332813
 Root      7 :     5.850782508680344   Change is   -0.000000163905327
 Root      8 :     6.336663844736055   Change is   -0.000000074472089
 Root      9 :     6.416352715879750   Change is   -0.000000069698801
 Root     10 :     6.453144474572791   Change is   -0.000003974973849
 Root     11 :     6.593243633720800   Change is   -0.000000140421743
 Root     12 :     6.868836295258130   Change is   -0.000000021243292
 Root     13 :     6.908553539985220   Change is   -0.000001860074739
 Root     14 :     6.921220535560701   Change is   -0.000000005470979
 Root     15 :     7.000660295447684   Change is   -0.000000110534701
 Root     16 :     7.065104615697773   Change is   -0.000000290959221
 Root     17 :     7.163389185583686   Change is   -0.000000042514985
 Root     18 :     7.225210557905518   Change is   -0.000001232847853
 Root     19 :     7.479809761518132   Change is   -0.000043583995318
 Root     20 :     7.600124172424390   Change is   -0.000000126626905
 Root     21 :     7.652066443567416   Change is   -0.000016485533358
 Root     22 :     7.737748576152891   Change is   -0.000007094403274
 Root     23 :     7.755904708398156   Change is   -0.000000370583762
 Root     24 :     7.798235573472359   Change is   -0.000000120892461
 Root     25 :     8.024791599099812   Change is   -0.000001606231900
 Root     26 :     8.103684803121917   Change is   -0.000000270023528
 Root     27 :     8.184509360876165   Change is   -0.000006981621950
 Root     28 :     8.242451725052067   Change is   -0.000009087130664
 Root     29 :     8.252643307091693   Change is   -0.000016382432420
 Root     30 :     8.380401275640367   Change is   -0.000019021614738
 Root     31 :     8.390297535895852   Change is   -0.000019062858781
 Root     32 :     8.441632602524175   Change is   -0.000000286252722
 Root     33 :     8.506633606394901   Change is   -0.000000266129893
 Root     34 :     8.517094779496750   Change is   -0.000000249884474
 Root     35 :     8.694875049669891   Change is   -0.000007282597820
 Root     36 :     8.706823492090788   Change is   -0.000057623273730
 Root     37 :     8.728944588624831   Change is   -0.000000026886935
 Root     38 :     8.733920899180484   Change is   -0.000005799379915
 Root     39 :     8.749220012498576   Change is   -0.000006889374004
 Root     40 :     8.770451437660157   Change is   -0.000006240204272
 Iteration     6 Dimension   430 NMult   428 NNew      2
 CISAX will form     2 AO SS matrices at one time.
 NMat=     2 NSing=     2 JSym2X= 0.
 Root      1 has converged.
 Root      2 has converged.
 Root      3 has converged.
 Root      4 has converged.
 Root      5 has converged.
 Root      6 has converged.
 Root      7 has converged.
 Root      8 has converged.
 Root      9 has converged.
 Root     10 has converged.
 Root     11 has converged.
 Root     12 has converged.
 Root     13 has converged.
 Root     14 has converged.
 Root     15 has converged.
 Root     16 has converged.
 Root     17 has converged.
 Root     18 has converged.
 Root     19 has converged.
 Root     20 has converged.
 Root     21 has converged.
 Root     22 has converged.
 Root     23 has converged.
 Root     24 has converged.
 Root     25 has converged.
 Root     26 has converged.
 Root     27 has converged.
 Root     28 has converged.
 Root     29 has converged.
 Root     30 has converged.
 Root     31 has converged.
 Root     32 has converged.
 Root     33 has converged.
 Root     34 has converged.
 Root     35 has converged.
 Root     36 not converged, maximum delta is    0.001076474616509
 Root     37 has converged.
 Root     38 has converged.
 Root     39 has converged.
 Root     40 has converged.
 Excitation Energies [eV] at current iteration:
 Root      1 :     3.238204511880661   Change is   -0.000000000014039
 Root      2 :     4.019694843359564   Change is   -0.000000000012701
 Root      3 :     5.013477965019812   Change is   -0.000000000014102
 Root      4 :     5.127129478210458   Change is   -0.000000000001171
 Root      5 :     5.464379519861231   Change is   -0.000000000012517
 Root      6 :     5.813782307546518   Change is   -0.000000000021888
 Root      7 :     5.850782508677590   Change is   -0.000000000002754
 Root      8 :     6.336663844569685   Change is   -0.000000000166370
 Root      9 :     6.416352715826029   Change is   -0.000000000053721
 Root     10 :     6.453144474486381   Change is   -0.000000000086410
 Root     11 :     6.593243633712172   Change is   -0.000000000008628
 Root     12 :     6.868836292812778   Change is   -0.000000002445351
 Root     13 :     6.908553539982793   Change is   -0.000000000002427
 Root     14 :     6.921220535547885   Change is   -0.000000000012817
 Root     15 :     7.000660295416530   Change is   -0.000000000031153
 Root     16 :     7.065104615676887   Change is   -0.000000000020886
 Root     17 :     7.163389185537850   Change is   -0.000000000045836
 Root     18 :     7.225210557888543   Change is   -0.000000000016975
 Root     19 :     7.479809761462773   Change is   -0.000000000055360
 Root     20 :     7.600124153920896   Change is   -0.000000018503494
 Root     21 :     7.652066443540892   Change is   -0.000000000026525
 Root     22 :     7.737748576127785   Change is   -0.000000000025105
 Root     23 :     7.755904696466589   Change is   -0.000000011931567
 Root     24 :     7.798235573454744   Change is   -0.000000000017616
 Root     25 :     8.024791599066692   Change is   -0.000000000033120
 Root     26 :     8.103684803098432   Change is   -0.000000000023484
 Root     27 :     8.184509360814754   Change is   -0.000000000061411
 Root     28 :     8.242451725029168   Change is   -0.000000000022900
 Root     29 :     8.252643307043661   Change is   -0.000000000048034
 Root     30 :     8.380401275565394   Change is   -0.000000000074974
 Root     31 :     8.390297535814440   Change is   -0.000000000081412
 Root     32 :     8.441632602511797   Change is   -0.000000000012377
 Root     33 :     8.506633606314187   Change is   -0.000000000080714
 Root     34 :     8.517094779336563   Change is   -0.000000000160186
 Root     35 :     8.694875049567960   Change is   -0.000000000101931
 Root     36 :     8.706818287144891   Change is   -0.000005204945897
 Root     37 :     8.728944588589167   Change is   -0.000000000035665
 Root     38 :     8.733920898178154   Change is   -0.000000001002331
 Root     39 :     8.749220011232175   Change is   -0.000000001266400
 Root     40 :     8.770451437343509   Change is   -0.000000000316647
 Convergence on energies, max DE= 5.20D-06.
 Convergence on expansion vectors.
 ***********************************************************************
 Excited states from <AA,BB:AA,BB> singles matrix:
 ***********************************************************************
 
 1PDM for each excited state written to RWF  633
 Ground to excited state transition densities written to RWF  633
 Ground to excited state transition electric dipole moments (Au):
       state          X           Y           Z        Dip. S.      Osc.
         1        -0.0034     -1.0407     -0.0001      1.0830      0.0859
         2         0.0840      0.0006      0.0000      0.0071      0.0007
         3        -0.0015      0.0002      0.0008      0.0000      0.0000
         4         0.0013      0.0001      0.0002      0.0000      0.0000
         5         3.9380     -0.0018     -0.0000     15.5080      2.0761
         6         0.0024      0.0354     -0.0001      0.0013      0.0002
         7         0.0004     -0.0004      0.0035      0.0000      0.0000
         8        -0.0012      0.1656      0.0002      0.0274      0.0043
         9        -0.0025      0.0003     -0.0005      0.0000      0.0000
        10         0.0047      0.8469     -0.0002      0.7173      0.1134
        11         0.0000      0.0002      0.0328      0.0011      0.0002
        12        -0.0003      0.0016     -0.0007      0.0000      0.0000
        13        -0.0010     -0.0004     -0.0112      0.0001      0.0000
        14        -0.0000      0.0002      0.0337      0.0011      0.0002
        15        -0.0008     -0.0000     -0.0000      0.0000      0.0000
        16        -0.0565      0.0007     -0.0000      0.0032      0.0006
        17        -0.0058     -0.0001     -0.0000      0.0000      0.0000
        18         0.0014     -0.0002     -0.0070      0.0001      0.0000
        19         0.0002     -0.0026      0.0549      0.0030      0.0006
        20         0.0004     -0.0449     -0.0003      0.0020      0.0004
        21         0.0009     -1.5692      0.0001      2.4623      0.4616
        22        -0.0009      0.0145     -0.0002      0.0002      0.0000
        23         0.0012     -0.0169     -0.0001      0.0003      0.0001
        24         0.0119      0.0007      0.0000      0.0001      0.0000
        25         0.1088     -0.0007      0.0002      0.0118      0.0023
        26        -0.0001     -0.0011     -0.0842      0.0071      0.0014
        27         0.0004     -0.0002     -0.2219      0.0492      0.0099
        28         0.0011      0.0005     -0.0016      0.0000      0.0000
        29         0.0011     -0.0008     -0.0031      0.0000      0.0000
        30         0.2473     -0.0005      0.0001      0.0611      0.0126
        31        -0.2326      0.0006     -0.0005      0.0541      0.0111
        32         0.0003     -0.0002     -0.2961      0.0877      0.0181
        33        -0.0087     -0.0003      0.0008      0.0001      0.0000
        34        -0.0002      0.0002     -0.0010      0.0000      0.0000
        35        -0.0009     -0.0000     -0.0007      0.0000      0.0000
        36        -0.0002     -0.0056      0.0001      0.0000      0.0000
        37        -0.0003     -0.0000     -0.1283      0.0165      0.0035
        38         0.0001      0.0000     -0.0026      0.0000      0.0000
        39         0.0002      0.0000      0.0000      0.0000      0.0000
        40         0.0004      0.0004      0.0013      0.0000      0.0000
 Ground to excited state transition velocity dipole moments (Au):
       state          X           Y           Z        Dip. S.      Osc.
         1         0.0004      0.1415      0.0000      0.0200      0.1121
         2        -0.0056     -0.0001      0.0000      0.0000      0.0001
         3         0.0003     -0.0000     -0.0002      0.0000      0.0000
         4        -0.0002     -0.0000     -0.0001      0.0000      0.0000
         5        -0.7699      0.0004      0.0000      0.5928      1.9679
         6        -0.0005     -0.0078      0.0001      0.0001      0.0002
         7        -0.0001      0.0001     -0.0007      0.0000      0.0000
         8         0.0003     -0.0401     -0.0000      0.0016      0.0046
         9         0.0006     -0.0001      0.0001      0.0000      0.0000
        10        -0.0011     -0.2091      0.0000      0.0437      0.1229
        11        -0.0000     -0.0000     -0.0077      0.0001      0.0002
        12         0.0001     -0.0004      0.0003      0.0000      0.0000
        13         0.0002      0.0001      0.0024      0.0000      0.0000
        14         0.0000     -0.0000     -0.0128      0.0002      0.0004
        15         0.0002      0.0000     -0.0000      0.0000      0.0000
        16         0.0181     -0.0002      0.0000      0.0003      0.0008
        17         0.0015      0.0000      0.0000      0.0000      0.0000
        18        -0.0004      0.0000      0.0021      0.0000      0.0000
        19        -0.0000      0.0007     -0.0144      0.0002      0.0005
        20        -0.0001      0.0123      0.0001      0.0002      0.0004
        21        -0.0002      0.4323     -0.0000      0.1869      0.4431
        22         0.0002     -0.0040      0.0000      0.0000      0.0000
        23        -0.0003      0.0050      0.0001      0.0000      0.0001
        24        -0.0041     -0.0002     -0.0000      0.0000      0.0000
        25        -0.0383      0.0002     -0.0001      0.0015      0.0033
        26         0.0000      0.0003      0.0240      0.0006      0.0013
        27        -0.0001      0.0001      0.0694      0.0048      0.0107
        28        -0.0003     -0.0001      0.0005      0.0000      0.0000
        29        -0.0003      0.0003      0.0010      0.0000      0.0000
        30        -0.0755      0.0001     -0.0000      0.0057      0.0123
        31         0.0713     -0.0002      0.0002      0.0051      0.0110
        32        -0.0001      0.0001      0.1342      0.0180      0.0387
        33         0.0033      0.0001     -0.0004      0.0000      0.0000
        34         0.0000     -0.0000      0.0004      0.0000      0.0000
        35         0.0003      0.0000      0.0005      0.0000      0.0000
        36         0.0001      0.0018     -0.0000      0.0000      0.0000
        37         0.0001      0.0000      0.0651      0.0042      0.0088
        38        -0.0000     -0.0000      0.0012      0.0000      0.0000
        39        -0.0000     -0.0000      0.0001      0.0000      0.0000
        40        -0.0001     -0.0001     -0.0006      0.0000      0.0000
 Ground to excited state transition magnetic dipole moments (Au):
       state          X           Y           Z
         1        -0.0263     -0.0010     -0.0001
         2         0.0002      0.0010     -0.0007
         3        -0.0001     -0.0001     -1.4420
         4         0.0001     -0.0000     -0.9509
         5        -0.0000      0.0556      0.0003
         6         0.0201      0.0009      0.0005
         7        -0.0001      0.0000     -0.0002
         8        -0.0138     -0.0007      0.0001
         9         0.0003     -0.0008      0.0041
        10         0.0160      0.0014     -0.0001
        11        -0.0004      0.0001      0.0003
        12        -0.2366     -0.0000     -0.0002
        13         0.0001      0.0003      0.0001
        14        -0.0052      0.0001      0.0003
        15        -0.0006     -0.0004      0.0145
        16         0.0001     -0.0049     -0.0009
        17        -0.0005      0.3110      0.0001
        18        -0.0001     -0.0001     -0.0006
        19        -0.0003      0.0001      0.0022
        20        -0.0551      0.0021      0.0003
        21        -0.0060     -0.0015      0.0129
        22        -0.0002     -0.0008      1.4083
        23         0.4762      0.0036      0.0014
        24         0.0020     -0.8628     -0.0010
        25        -0.0001      0.0084     -0.0019
        26        -0.0001      0.0003      0.0004
        27        -0.0018     -0.0003     -0.0002
        28         0.0014     -0.0002     -1.0451
        29         0.0010      0.0015      1.5690
        30        -0.0017     -0.5214      0.0014
        31        -0.0012     -0.5595      0.0008
        32         0.0002      0.0013     -0.0026
        33        -0.0018      0.3750     -0.0016
        34         0.0003     -0.0173     -0.0262
        35        -0.0027     -0.0001     -0.6212
        36        -1.1337      0.0028      0.0004
        37        -0.0001     -0.0001     -0.0021
        38         0.0003      0.0038      0.0409
        39        -0.0014      0.0024     -0.0615
        40         0.0024      0.0001     -0.5662
 Ground to excited state transition velocity quadrupole moments (Au):
       state          XX          YY          ZZ          XY          XZ          YZ
         1        -0.0004      0.0005      0.0000      0.0004      0.0002     -0.0083
         2         0.0001     -0.0000     -0.0000      0.0000     -0.0010      0.0001
         3        -0.0010     -0.0000     -0.0000     -0.8971      0.0000     -0.0000
         4        -0.0004      0.0002      0.0000     -0.2618      0.0000      0.0000
         5         0.0009     -0.0003     -0.0000     -0.0001     -0.0393     -0.0004
         6         0.0001     -0.0001      0.0000     -0.0000     -0.0005     -0.0056
         7        -0.2753      0.0936      0.0021     -0.0001     -0.0000     -0.0001
         8        -0.0017      0.0004      0.0000      0.0009      0.0004      0.0069
         9         0.0002      0.0001      0.0000     -0.0007      0.0001      0.0001
        10        -0.0014      0.0004      0.0000      0.0015     -0.0012     -0.0077
        11        -0.0220      0.0059     -0.0025      0.0001      0.0001     -0.0000
        12         0.0014     -0.0008      0.0003      0.0000      0.0001     -0.1723
        13         1.2396     -0.4168     -0.0238     -0.0007     -0.0001     -0.0001
        14        -0.0135      0.0093     -0.0081      0.0001     -0.0000     -0.0037
        15         0.0068     -0.0024      0.0006     -0.0081      0.0001     -0.0004
        16        -0.0007      0.0002     -0.0000     -0.0010      0.0118      0.0000
        17         0.0004      0.0001      0.0001     -0.0000     -0.2008     -0.0002
        18         0.8557      0.2608     -0.0100     -0.0001      0.0000     -0.0001
        19        -5.9806      0.8882     -0.0311      0.0013     -0.0001      0.0003
        20         0.0185     -0.0026      0.0000      0.0001     -0.0013      0.0150
[...]
    10  C   -0.091584   0.013861   0.492972   4.927925   0.000034   0.000001
    11  C   -0.000569   0.000005   0.000001   0.000034   4.927300   0.493109
    12  C    0.000005   0.000000  -0.000000   0.000001   0.493109   4.760070
    13  C    0.000001  -0.000000   0.000000   0.000005   0.013811   0.436742
    14  C    0.000034   0.000001   0.000005  -0.000565  -0.091565   0.013796
    15  H   -0.000017  -0.000001   0.000000  -0.000001   0.395749  -0.055388
    16  H   -0.000000  -0.000000   0.000000   0.000000  -0.038668   0.389812
    17  H    0.000000   0.000000  -0.000000  -0.000000   0.009361  -0.051703
    18  H   -0.000001   0.000000  -0.000001  -0.000017  -0.000603   0.010012
    19  H   -0.020822   0.000838  -0.000053  -0.000165  -0.020832   0.000843
    20  H   -0.000601   0.010015  -0.055336   0.395694  -0.000001   0.000000
    21  H    0.009366  -0.051772   0.389877  -0.038837   0.000000   0.000000
    22  H    0.395710  -0.055366   0.010039  -0.000605  -0.000017  -0.000001
    23  H   -0.038706   0.389878  -0.051825   0.009349  -0.000000  -0.000000
    24  H   -0.000164  -0.000052   0.000833  -0.020827  -0.000165  -0.000052
              13         14         15         16         17         18
     1  C   -0.001233   0.018476  -0.023561  -0.000455   0.000041  -0.000124
     2  C   -0.069320  -0.032371  -0.039327   0.008763   0.000726   0.013085
     3  C    0.000138   0.000063   0.001781   0.000010  -0.000000  -0.000070
     4  C    0.027974   0.433192   0.013109   0.000723   0.008743  -0.039323
     5  C    0.010505  -0.127188  -0.000125   0.000041  -0.000452  -0.023446
     6  C   -0.000861   0.009343  -0.000070  -0.000000   0.000010   0.001759
     7  C    0.000001   0.000034  -0.000017  -0.000000   0.000000  -0.000001
     8  C   -0.000000   0.000001  -0.000001  -0.000000   0.000000   0.000000
     9  C    0.000000   0.000005   0.000000   0.000000  -0.000000  -0.000001
    10  C    0.000005  -0.000565  -0.000001   0.000000  -0.000000  -0.000017
    11  C    0.013811  -0.091565   0.395749  -0.038668   0.009361  -0.000603
    12  C    0.436742   0.013796  -0.055388   0.389812  -0.051703   0.010012
    13  C    4.759723   0.492998   0.010036  -0.051824   0.389908  -0.055288
    14  C    0.492998   4.928397  -0.000606   0.009346  -0.038841   0.395753
    15  H    0.010036  -0.000606   0.753871  -0.015025  -0.000285   0.000053
    16  H   -0.051824   0.009346  -0.015025   0.741096  -0.015221  -0.000285
    17  H    0.389908  -0.038841  -0.000285  -0.015221   0.741114  -0.014975
    18  H   -0.055288   0.395753   0.000053  -0.000285  -0.014975   0.753459
    19  H   -0.000053  -0.000163   0.002576  -0.000016  -0.000001   0.000010
    20  H   -0.000001  -0.000017   0.000000   0.000000  -0.000000   0.000023
    21  H   -0.000000  -0.000000   0.000000   0.000000  -0.000000  -0.000000
    22  H    0.000000  -0.000001   0.000024  -0.000000   0.000000   0.000000
    23  H    0.000000   0.000000  -0.000000  -0.000000   0.000000   0.000000
    24  H    0.000829  -0.020818   0.000010  -0.000001  -0.000016   0.002607
              19         20         21         22         23         24
     1  C    0.390351  -0.000126   0.000041  -0.023534  -0.000454  -0.000720
     2  C   -0.042635  -0.000070  -0.000000   0.001776   0.000010   0.012551
     3  C   -0.042535   0.013113   0.000723  -0.039282   0.008758   0.012537
     4  C    0.012508   0.001763   0.000010  -0.000070  -0.000000  -0.042435
     5  C   -0.000725  -0.023496  -0.000453  -0.000123   0.000041   0.390135
     6  C    0.012534  -0.039229   0.008746   0.013103   0.000726  -0.042514
     7  C   -0.020822  -0.000601   0.009366   0.395710  -0.038706  -0.000164
     8  C    0.000838   0.010015  -0.051772  -0.055366   0.389878  -0.000052
     9  C   -0.000053  -0.055336   0.389877   0.010039  -0.051825   0.000833
    10  C   -0.000165   0.395694  -0.038837  -0.000605   0.009349  -0.020827
    11  C   -0.020832  -0.000001   0.000000  -0.000017  -0.000000  -0.000165
    12  C    0.000843   0.000000   0.000000  -0.000001  -0.000000  -0.000052
    13  C   -0.000053  -0.000001  -0.000000   0.000000   0.000000   0.000829
    14  C   -0.000163  -0.000017  -0.000000  -0.000001   0.000000  -0.020818
    15  H    0.002576   0.000000   0.000000   0.000024  -0.000000   0.000010
    16  H   -0.000016   0.000000   0.000000  -0.000000  -0.000000  -0.000001
    17  H   -0.000001  -0.000000  -0.000000   0.000000   0.000000  -0.000016
    18  H    0.000010   0.000023  -0.000000   0.000000   0.000000   0.002607
    19  H    0.756624   0.000010  -0.000001   0.002591  -0.000016   0.000049
    20  H    0.000010   0.753570  -0.014987   0.000052  -0.000284   0.002599
    21  H   -0.000001  -0.014987   0.741116  -0.000286  -0.015239  -0.000016
    22  H    0.002591   0.000052  -0.000286   0.753735  -0.015008   0.000010
    23  H   -0.000016  -0.000284  -0.015239  -0.015008   0.741201  -0.000001
    24  H    0.000049   0.002599  -0.000016   0.000010  -0.000001   0.756846
 Mulliken charges:
               1
     1  C   -0.018207
     2  C    0.059431
     3  C    0.058799
     4  C    0.058439
     5  C   -0.017587
     6  C    0.058891
     7  C    0.010884
     8  C    0.036003
     9  C    0.035761
    10  C    0.010768
    11  C    0.011159
    12  C    0.035456
    13  C    0.035910
    14  C    0.010731
    15  H   -0.042802
    16  H   -0.028296
    17  H   -0.028408
    18  H   -0.042629
    19  H   -0.050921
    20  H   -0.042692
    21  H   -0.028289
    22  H   -0.042747
    23  H   -0.028431
    24  H   -0.051225
 Sum of Mulliken charges =  -0.00000
 Mulliken charges with hydrogens summed into heavy atoms:
               1
     1  C   -0.069128
     2  C    0.059431
     3  C    0.058799
     4  C    0.058439
     5  C   -0.068812
     6  C    0.058891
     7  C   -0.031863
     8  C    0.007573
     9  C    0.007472
    10  C   -0.031924
    11  C   -0.031643
    12  C    0.007160
    13  C    0.007501
    14  C   -0.031898
 Electronic spatial extent (au):  <R**2>=           2823.5857
 Charge=             -0.0000 electrons
 Dipole moment (field-independent basis, Debye):
    X=             -0.0004    Y=             -0.0023    Z=              0.0634  Tot=              0.0635
 Quadrupole moment (field-independent basis, Debye-Ang):
   XX=            -71.3728   YY=            -71.3976   ZZ=            -87.0240
   XY=             -0.0098   XZ=             -0.0003   YZ=              0.0007
 Traceless Quadrupole moment (field-independent basis, Debye-Ang):
   XX=              5.2253   YY=              5.2005   ZZ=            -10.4259
   XY=             -0.0098   XZ=             -0.0003   YZ=              0.0007
 Octapole moment (field-independent basis, Debye-Ang**2):
  XXX=             -0.0156  YYY=             -0.0012  ZZZ=              0.0469  XYY=             -0.0021
  XXY=             -0.0279  XXZ=              2.0296  XZZ=              0.0022  YZZ=             -0.0068
  YYZ=              0.1191  XYZ=              0.0312
 Hexadecapole moment (field-independent basis, Debye-Ang**3):
 XXXX=          -2816.5511 YYYY=           -695.7614 ZZZZ=            -96.4042 XXXY=             -0.1898
 XXXZ=              0.0185 YYYX=             -0.0540 YYYZ=              0.0065 ZZZX=             -0.0002
 ZZZY=              0.0010 XXYY=           -595.9023 XXZZ=           -590.2771 YYZZ=           -155.9799
 XXYZ=             -0.0141 YYXZ=             -0.0100 ZZXY=             -0.0007
 N-N= 7.699353678581D+02 E-N=-2.789901634366D+03  KE= 5.359537171911D+02
 Leave Link  601 at Tue Aug 27 23:23:29 2024, MaxMem=   104857600 cpu:               0.9 elap:               0.1
 (Enter /curc/sw/install/gaussian/g16_c.02/g16/l9999.exe)
 Electronic transition elements 
                 1             2             3             4             5 
      1  -0.539111D+03 -0.539082D+03 -0.539046D+03 -0.539041D+03 -0.539029D+03
      2  -0.257789D+00  0.719369D-01 -0.875056D-03  0.118911D-02  0.336607D+01
      3  -0.338721D+00 -0.432200D-01  0.147503D-02 -0.468470D-03 -0.203637D+01
      4   0.949659D+00  0.317123D-02  0.105597D-03  0.716043D-04  0.175398D+00
      5   0.349900D-01 -0.479405D-02  0.141677D-03 -0.218674D-03 -0.658091D+00
      6   0.460706D-01  0.285512D-02 -0.262923D-03  0.617826D-04  0.398143D+00
      7  -0.129101D+00 -0.161241D-03 -0.241950D-04 -0.219616D-04 -0.343255D-01
      8  -0.227968D-01  0.956185D-04 -0.659665D+00 -0.434900D+00  0.137303D-01
      9   0.132116D-01 -0.338900D-03 -0.114070D+01 -0.752297D+00  0.184430D-01
     10  -0.331136D-03 -0.123907D-02 -0.585638D+00 -0.386256D+00 -0.505969D-01
     11  -0.180162D-02 -0.688236D-03 -0.376333D+00 -0.109880D+00 -0.302675D-01
     12  -0.466937D-02  0.839802D-03  0.303079D+00  0.884488D-01  0.321526D-01
     13   0.654143D-02 -0.132262D-03  0.722626D-01  0.212412D-01 -0.133819D-02
     14  -0.246569D-02 -0.412415D-03 -0.136823D+00 -0.398230D-01 -0.178692D-01
     15   0.230571D-02 -0.378821D-03  0.690292D+00  0.201428D+00 -0.141676D-01
     16   0.491067D-02  0.120900D-03 -0.436224D+00 -0.127394D+00  0.719764D-02
                 6             7             8             9            10 
      1  -0.539016D+03 -0.539015D+03 -0.538997D+03 -0.538994D+03 -0.538993D+03
      2   0.106653D-01  0.185631D-02  0.396117D-01 -0.231061D-02  0.211321D+00
      3   0.102577D-01  0.243943D-02  0.549328D-01  0.979444D-03  0.274453D+00
      4  -0.322163D-01  0.186485D-02 -0.151113D+00 -0.619094D-03 -0.772883D+00
      5  -0.231871D-02 -0.362070D-03 -0.960251D-02  0.525411D-03 -0.521039D-01
      6  -0.225232D-02 -0.472513D-03 -0.132751D-01 -0.231980D-03 -0.677878D-01
      7   0.712278D-02 -0.385253D-03  0.365587D-01  0.144102D-03  0.190795D+00
      8   0.176373D-01 -0.157993D-03 -0.119443D-01  0.192104D-02  0.139508D-01
      9  -0.966769D-02 -0.688298D-04  0.703891D-02  0.289751D-02 -0.786077D-02
     10   0.276670D-03 -0.120492D-03  0.519550D-04  0.239386D-02 -0.638577D-03
     11  -0.156318D-02 -0.195242D+00  0.103678D-02  0.110083D-04 -0.306883D-02
     12  -0.246016D-02 -0.622068D-01  0.252087D-02  0.260967D-03 -0.380456D-02
     13   0.405578D-02  0.778637D-01 -0.478047D-02  0.750683D-04  0.587208D-02
     14  -0.222294D-02  0.129871D+00  0.345982D-02 -0.108048D-03 -0.228764D-02
     15   0.163707D-02 -0.308224D-01 -0.292841D-02  0.579662D-03  0.681275D-03
     16   0.342185D-02 -0.209617D-01 -0.373674D-02 -0.443113D-03  0.538584D-02
                11            12            13            14            15 
      1  -0.538988D+03 -0.538977D+03 -0.538976D+03 -0.538975D+03 -0.538973D+03
      2   0.150540D-01 -0.178004D-03 -0.605325D-02  0.154036D-01 -0.710889D-03
      3   0.259908D-01  0.141524D-03 -0.852497D-02  0.267210D-01  0.372925D-03
      4   0.131352D-01 -0.172386D-02 -0.427446D-02  0.135383D-01 -0.181975D-04
      5  -0.353773D-02  0.980385D-04  0.134024D-02 -0.584254D-02  0.171889D-03
      6  -0.610892D-02  0.428105D-04  0.182826D-02 -0.101321D-01 -0.989616D-04
      7  -0.308363D-02  0.428111D-03  0.910873D-03 -0.515563D-02 -0.462208D-05
      8  -0.160602D-03 -0.202343D+00  0.186963D-03 -0.431476D-02  0.602296D-02
      9   0.433945D-03  0.122141D+00  0.131065D-03  0.297183D-02  0.116784D-01
     10  -0.172257D-04 -0.104834D-01 -0.183360D-03 -0.182311D-03  0.619751D-02
     11  -0.161980D-01 -0.375146D-01  0.875572D+00 -0.117998D-01  0.154644D-02
     12  -0.690990D-02 -0.887643D-01  0.272120D+00 -0.960043D-02  0.431132D-02
     13   0.448088D-02  0.127156D+00 -0.348602D+00  0.911454D-02 -0.924063D-03
     14   0.934343D-02 -0.596896D-01 -0.589993D+00  0.256335D-02 -0.429268D-02
     15  -0.262999D-02  0.550865D-01  0.135991D+00 -0.303312D-02  0.728808D-02
     16  -0.200413D-02  0.101818D+00  0.882599D-01 -0.284067D-02 -0.295834D-02
                16            17            18            19            20 
      1  -0.538970D+03 -0.538967D+03 -0.538964D+03 -0.538955D+03 -0.538951D+03
      2  -0.481272D-01 -0.497536D-02 -0.206699D-02  0.246119D-01 -0.107739D-01
      3   0.294072D-01  0.291508D-02 -0.629617D-02  0.424971D-01 -0.151060D-01
      4  -0.310216D-02 -0.174250D-03 -0.262312D-02  0.246396D-01  0.408407D-01
      5   0.154118D-01  0.128554D-02  0.673522D-03 -0.646543D-02  0.295073D-02
      6  -0.939258D-02 -0.748904D-03  0.187963D-02 -0.111489D-01  0.411620D-02
      7   0.953044D-03  0.513436D-04  0.822899D-03 -0.646702D-02 -0.111730D-01
      8  -0.151082D-02  0.757565D-01 -0.388910D-03  0.782150D-03 -0.464505D-01
      9  -0.241692D-02  0.102058D+00 -0.403502D-03  0.188879D-02  0.293551D-01
     10   0.411148D-02 -0.283849D+00 -0.178702D-03  0.747138D-03 -0.422404D-02
     11   0.827091D-02 -0.156723D+00  0.638862D+00 -0.432345D+01  0.157473D-01
     12  -0.944609D-02  0.164280D+00  0.250325D+00 -0.152288D+01  0.134680D-01
     13   0.677028D-03 -0.700045D-02  0.217318D+00  0.722827D+00 -0.132787D-01
     14   0.538213D-02 -0.885265D-01 -0.360915D+00  0.270310D+01 -0.380239D-02
     15   0.504667D-02 -0.736653D-01 -0.277747D-01 -0.431013D+00 -0.404901D-02
     16  -0.265049D-02  0.352313D-01 -0.100589D+00 -0.138252D+00 -0.816813D-02
                21            22            23            24            25 
      1  -0.538949D+03 -0.538945D+03 -0.538945D+03 -0.538943D+03 -0.538935D+03
      2  -0.383496D+00  0.274221D-02 -0.315688D-02  0.103315D-01  0.929044D-01
      3  -0.513612D+00  0.505279D-02 -0.626554D-02 -0.587138D-02 -0.562980D-01
      4   0.143229D+01 -0.133043D-01  0.154030D-01 -0.948727D-04  0.547516D-02
      5   0.105655D+00 -0.776285D-03  0.943210D-03 -0.359277D-02 -0.327636D-01
      6   0.141520D+00 -0.139920D-02  0.184249D-02  0.204907D-02  0.198400D-01
      7  -0.394632D+00  0.371350D-02 -0.452366D-02  0.376814D-05 -0.188996D-02
      8   0.396284D-03  0.643755D+00  0.408607D+00 -0.210075D+00  0.110318D-02
      9   0.128175D-01  0.111392D+01 -0.243880D+00 -0.284029D+00  0.125886D-02
     10   0.629522D-02  0.572775D+00  0.182746D-01  0.787181D+00 -0.844810D-02
     11   0.394404D-02  0.113123D+00  0.757678D-01  0.564126D+00 -0.756400D-02
     12  -0.582180D-02 -0.919930D-01  0.181619D+00 -0.589541D+00  0.120445D-01
     13   0.770875D-02 -0.211029D-01 -0.256317D+00  0.250622D-01 -0.695373D-03
     14  -0.506291D-02  0.417384D-01  0.116199D+00  0.317960D+00 -0.793887D-02
     15   0.251318D-02 -0.207682D+00 -0.110833D+00  0.264880D+00 -0.229493D-02
     16   0.674760D-02  0.131229D+00 -0.202341D+00 -0.127292D+00  0.117694D-02
                26            27            28            29            30 
      1  -0.538932D+03 -0.538929D+03 -0.538927D+03 -0.538927D+03 -0.538922D+03
      2  -0.388714D-01 -0.101175D+00  0.296498D-03 -0.723040D-03  0.211318D+00
      3  -0.668770D-01 -0.175804D+00 -0.171699D-02 -0.330403D-02 -0.127900D+00
      4  -0.332415D-01 -0.898828D-01 -0.104028D-02 -0.480204D-03  0.113624D-01
      5   0.110989D-01  0.316359D-01 -0.801346D-04  0.261586D-03 -0.645391D-01
      6   0.190996D-01  0.549748D-01  0.503296D-03  0.106121D-02  0.390443D-01
      7   0.948881D-02  0.281101D-01  0.314398D-03  0.175015D-03 -0.347524D-02
      8   0.180484D-03 -0.172326D-02 -0.476894D+00  0.718864D+00 -0.128524D+00
      9   0.399049D-03  0.700439D-03 -0.827578D+00  0.124114D+01 -0.168561D+00
     10  -0.104930D-03  0.759237D-04 -0.424248D+00  0.635971D+00  0.476365D+00
     11  -0.190722D-01  0.219094D-01 -0.673981D+00  0.103812D+01  0.125816D+00
     12  -0.281972D-02  0.647378D-02  0.544401D+00 -0.836073D+00 -0.129714D+00
     13   0.303546D-02 -0.633991D-02  0.129635D+00 -0.200075D+00  0.511821D-02
     14   0.161272D-01 -0.147643D-01 -0.246006D+00  0.377513D+00  0.692989D-01
     15  -0.766491D-03  0.281390D-02  0.123844D+01 -0.190568D+01  0.548079D-01
     16   0.317001D-02  0.179046D-02 -0.782946D+00  0.120440D+01 -0.256203D-01
                31            32            33            34            35 
      1  -0.538921D+03 -0.538920D+03 -0.538917D+03 -0.538917D+03 -0.538910D+03
      2  -0.198892D+00 -0.135233D+00 -0.718613D-02 -0.628043D-03 -0.108378D-02
      3   0.120007D+00 -0.234414D+00  0.502635D-02 -0.604339D-03 -0.128268D-03
      4  -0.110664D-01 -0.120105D+00  0.217390D-03 -0.552671D-03 -0.306153D-03
      5   0.609606D-01  0.613400D-01  0.268113D-02  0.225852D-03  0.452073D-03
      6  -0.367552D-01  0.106259D+00 -0.195481D-02  0.310515D-03  0.245326D-03
      7   0.339240D-02  0.544733D-01 -0.110144D-03  0.223113D-03  0.201339D-03
      8  -0.137669D+00 -0.655531D-03  0.895731D-01 -0.159532D-01 -0.286440D+00
      9  -0.181780D+00 -0.173262D-02  0.122349D+00 -0.264807D-01 -0.490007D+00
     10   0.510970D+00 -0.218464D-02 -0.342979D+00  0.515630D-02 -0.252362D+00
     11   0.190275D+00 -0.405365D-01 -0.338410D+00 -0.391619D-02 -0.492292D+00
     12  -0.199696D+00 -0.817999D-03  0.354299D+00 -0.223777D-02  0.395853D+00
     13   0.902228D-02  0.368790D-02 -0.149106D-01  0.413095D-02  0.951924D-01
     14   0.107223D+00  0.304556D-01 -0.191320D+00  0.325185D-02 -0.179006D+00
     15   0.894076D-01  0.430029D-02 -0.157014D+00  0.378043D-01  0.903054D+00
     16  -0.422349D-01  0.519514D-02  0.750901D-01 -0.230993D-01 -0.570343D+00
                36            37            38            39            40 
      1  -0.538910D+03 -0.538909D+03 -0.538909D+03 -0.538908D+03 -0.538908D+03
      2  -0.147424D-02 -0.589272D-01 -0.109717D-02  0.150457D-03  0.102123D-02
      3  -0.161988D-02 -0.101409D+00 -0.208159D-02 -0.556432D-04  0.929798D-03
      4   0.513867D-02 -0.521272D-01 -0.106244D-02 -0.343461D-04  0.140765D-03
      5   0.480610D-03  0.298519D-01  0.540708D-03 -0.623083D-05 -0.444135D-03
      6   0.527620D-03  0.514737D-01  0.989580D-03  0.855096D-04 -0.457740D-03
      7  -0.168680D-02  0.264473D-01  0.506844D-03  0.454748D-04 -0.130412D-03
      8  -0.968326D+00 -0.108329D-02  0.198730D-01 -0.287965D-01 -0.256879D+00
      9   0.587333D+00 -0.164258D-02  0.334749D-01 -0.471564D-01 -0.449106D+00
     10  -0.523889D-01 -0.761880D-03  0.131225D-01 -0.272201D-01 -0.229943D+00
     11  -0.548753D-01  0.293839D-02 -0.205109D-02 -0.192012D-01 -0.376020D+00
     12  -0.124122D+00 -0.171567D-03  0.332411D-02  0.153262D-01  0.304072D+00
     13   0.177976D+00  0.372703D-02 -0.439525D-03  0.323636D-02  0.716653D-01
     14  -0.825536D-01 -0.302339D-02 -0.212584D-02 -0.667651D-02 -0.137334D+00
     15   0.755868D-01 -0.760945D-03 -0.892111D-03  0.282302D-01  0.691276D+00
     16   0.142422D+00 -0.344959D-02  0.276114D-03 -0.181148D-01 -0.437105D+00
 Unable to Open any file for archive entry.
 1\1\GINC-C3CPU-C11-U1-3\SP\RCAM-B3LYP TD-FC\CC-pVDZ\C14H10\SILE6618\27
 -Aug-2024\0\\#p CAM-B3LYP/cc-pVDZ TD(NStates=40,Root=0)\\TD-DFT excite
 d state calculation: CAM-B3LYP/cc-pVDZ\\0,1\C,0,10.7883,5.60957,26.317
 3\C,0,9.92421,6.47424,25.63038\C,0,12.00347,5.21621,25.73742\C,0,10.27
 019,6.93771,24.337\C,0,11.47751,6.53025,23.74973\C,0,12.3503,5.68044,2
 4.44474\C,0,12.8861,4.37527,26.43378\C,0,14.10475,4.00577,25.85792\C,0
 ,14.44717,4.46338,24.58321\C,0,13.57402,5.29381,23.8745\C,0,8.7218,6.8
 9549,26.21979\C,0,7.87542,7.77343,25.53757\C,0,8.21584,8.23016,24.2613
 8\C,0,9.40604,7.81226,23.65865\H,0,8.44182,6.5545,27.20957\H,0,6.95432
 ,8.10375,26.00104\H,0,7.55741,8.91257,23.73981\H,0,9.65406,8.17971,22.
 66967\H,0,10.52354,5.25562,27.30812\H,0,13.85852,5.64034,22.88784\H,0,
 15.39452,4.17703,24.14417\H,0,12.6387,4.01237,27.42454\H,0,14.78634,3.
 36575,26.40315\H,0,11.74398,6.88702,22.76106\\Version=ES64L-G16RevC.02
 \State=1-A\HF=-539.2298136\RMSD=3.473e-09\PG=C01 [X(C14H10)]\\@
 The archive entry for this job was punched.


 The chemist is a guest at the physicist's table and
 frequently dines well.
                   -- Richard Bersohn
 Job cpu time:       0 days  0 hours 52 minutes  0.1 seconds.
 Elapsed time:       0 days  0 hours  1 minutes 50.3 seconds.
 File lengths (MBytes):  RWF=   1120 Int=      0 D2E=      0 Chk=     96 Scr=      1
 Normal termination of Gaussian 16 at Tue Aug 27 23:23:30 2024.
