 Entering Gaussian System, Link 0=g16
 Initial command:
 /curc/sw/install/gaussian/g16_c.02/g16/l1.exe "/scratch/local/8860646/Gau-1884491.inp" -scrdir="/scratch/local/8860646/"
 Entering Link 1 = /curc/sw/install/gaussian/g16_c.02/g16/l1.exe PID=   1884494.
  
 Copyright (c) 1988-2021, Gaussian, Inc.  All Rights Reserved.
  
 This is part of the Gaussian(R) 16 program.  It is based on
 the Gaussian(R) 09 system (copyright 2009, Gaussian, Inc.),
 the Gaussian(R) 03 system (copyright 2003, Gaussian, Inc.),
 the Gaussian(R) 98 system (copyright 1998, Gaussian, Inc.),
 the Gaussian(R) 94 system (copyright 1995, Gaussian, Inc.),
 the Gaussian 92(TM) system (copyright 1992, Gaussian, Inc.),
 the Gaussian 90(TM) system (copyright 1990, Gaussian, Inc.),
 the Gaussian 88(TM) system (copyright 1988, Gaussian, Inc.),
 the Gaussian 86(TM) system (copyright 1986, Carnegie Mellon
 University), and the Gaussian 82(TM) system (copyright 1983,
 Carnegie Mellon University). Gaussian is a federally registered
 trademark of Gaussian, Inc.
  
 This software contains proprietary and confidential information,
 including trade secrets, belonging to Gaussian, Inc.
  
 This software is provided under written license and may be
 used, copied, transmitted, or stored only in accord with that
 written license.
  
 The following legend is applicable only to US Government
 contracts under FAR:
  
                    RESTRICTED RIGHTS LEGEND
  
 Use, reproduction and disclosure by the US Government is
 subject to restrictions as set forth in subparagraphs (a)
 and (c) of the Commercial Computer Software - Restricted
 Rights clause in FAR 52.227-19.
  
 Gaussian, Inc.
 340 Quinnipiac St., Bldg. 40, Wallingford CT 06492
  
  
 ---------------------------------------------------------------
 Warning -- This program may not be used in any manner that
 competes with the business of Gaussian, Inc. or will provide
 assistance to any competitor of Gaussian, Inc.  The licensee
 of this program is prohibited from giving any competitor of
 Gaussian, Inc. access to this program.  By using this program,
 the user acknowledges that Gaussian, Inc. is engaged in the
 business of creating and licensing software in the field of
 computational chemistry and represents and warrants to the
 licensee that it is not a competitor of Gaussian, Inc. and that
 it will not use this program in any manner prohibited above.
 ---------------------------------------------------------------
  

 Cite this work as:
 Gaussian 16, Revision C.02,
 M. J. Frisch, G. W. Trucks, H. B. Schlegel, G. E. Scuseria, 
 M. A. Robb, J. R. Cheeseman, G. Scalmani, V. Barone, 
 G. A. Petersson, H. Nakatsuji, X. Li, M. Caricato, A. V. Marenich, 
 J. Bloino, B. G. Janesko, R. Gomperts, B. Mennucci, H. P. Hratchian, 
 J. V. Ortiz, A. F. Izmaylov, J. L. Sonnenberg, D. Williams-Young, 
 F. Ding, F. Lipparini, F. Egidi, J. Goings, B. Peng, A. Petrone, 
 T. Henderson, D. Ranasinghe, V. G. Zakrzewski, J. Gao, N. Rega, 
 G. Zheng, W. Liang, M. Hada, M. Ehara, K. Toyota, R. Fukuda, 
 J. Hasegawa, M. Ishida, T. Nakajima, Y. Honda, O. Kitao, H. Nakai, 
 T. Vreven, K. Throssell, J. A. Montgomery, Jr., J. E. Peralta, 
 F. Ogliaro, M. J. Bearpark, J. J. Heyd, E. N. Brothers, K. N. Kudin, 
 V. N. Staroverov, T. A. Keith, R. Kobayashi, J. Normand, 
 K. Raghavachari, A. P. Rendell, J. C. Burant, S. S. Iyengar, 
 J. Tomasi, M. Cossi, J. M. Millam, M. Klene, C. Adamo, R. Cammi, 
 J. W. Ochterski, R. L. Martin, K. Morokuma, O. Farkas, 
 J. B. Foresman, and D. J. Fox, Gaussian, Inc., Wallingford CT, 2019.
 
 ******************************************
 Gaussian 16:  ES64L-G16RevC.02  7-Dec-2021
                20-Oct-2024 
 ******************************************
 %Chk=tddft
 ---------------------------------------
 #p PBEPBE/cc-pVDZ TD(NStates=40,Root=0)
 ---------------------------------------
 1/38=1,172=1/1;
 2/12=2,17=6,18=5,40=1/2;
 3/5=16,11=9,25=1,30=1,74=1009/1,2,3,8;
 4//1;
 5/5=2,38=5/2;
 8/6=1,10=1,108=40/1;
 9/41=40,42=1,70=2/14;
 6/7=2,8=2,9=2,10=2/1;
 99/5=1,9=1/99;
 Leave Link    1 at Sun Oct 20 09:19:18 2024, MaxMem=           0 cpu:               0.0 elap:               0.2
 (Enter /curc/sw/install/gaussian/g16_c.02/g16/l101.exe)
 ---------------------------------------------
 TD-DFT excited state calculation: PBE/cc-pVDZ
 ---------------------------------------------
 Symbolic Z-matrix:
 Charge =  0 Multiplicity = 1
 C                     10.70051   5.44882   23.71103 
 C                     9.86535   6.36033   23.06568 
 C                     11.92708   5.09157   23.15315 
 C                     10.20494   6.81277   21.73154 
 C                     11.36552   6.33847   21.05453 
 C                     12.28918   5.58033   21.83391 
 C                     12.86133   4.31545   23.9032 
 C                     14.13694   4.09733   23.44877 
 C                     14.53031   4.64821   22.20398 
 C                     13.6257   5.33579   21.43452 
 C                     8.71898   6.89515   23.72297 
 C                     7.97054   7.8934    23.15017 
 C                     8.32225   8.3755    21.86646 
 C                     9.37377   7.81691   21.18403 
 H                     8.47903   6.52006   24.71974 
 H                     7.118     8.32084   23.67852 
 H                     7.74314   9.17777   21.40694 
 H                     9.62716   8.17517   20.18813 
 H                     10.4301   5.07732   24.70245 
 H                     13.95536   5.76717   20.4966 
 H                     15.55371   4.52044   21.84723 
 H                     12.54422   3.93771   24.87737 
 H                     14.8505   3.52914   24.04618 
 H                     11.6372   6.71833   20.07691 
 
 ITRead=  0  0  0  0  0  0  0  0  0  0  0  0  0  0  0  0  0  0  0  0
 ITRead=  0  0  0  0
 MicOpt= -1 -1 -1 -1 -1 -1 -1 -1 -1 -1 -1 -1 -1 -1 -1 -1 -1 -1 -1 -1
 MicOpt= -1 -1 -1 -1
 NAtoms=     24 NQM=       24 NQMF=       0 NMMI=      0 NMMIF=      0
                NMic=       0 NMicF=      0.
                    Isotopes and Nuclear Properties:
 (Nuclear quadrupole moments (NQMom) in fm**2, nuclear magnetic moments (NMagM)
  in nuclear magnetons)

  Atom         1           2           3           4           5           6           7           8           9          10
 IAtWgt=          12          12          12          12          12          12          12          12          12          12
 AtmWgt=  12.0000000  12.0000000  12.0000000  12.0000000  12.0000000  12.0000000  12.0000000  12.0000000  12.0000000  12.0000000
 NucSpn=           0           0           0           0           0           0           0           0           0           0
 AtZEff=  -0.0000000  -0.0000000  -0.0000000  -0.0000000  -0.0000000  -0.0000000  -0.0000000  -0.0000000  -0.0000000  -0.0000000
 NQMom=    0.0000000   0.0000000   0.0000000   0.0000000   0.0000000   0.0000000   0.0000000   0.0000000   0.0000000   0.0000000
 NMagM=    0.0000000   0.0000000   0.0000000   0.0000000   0.0000000   0.0000000   0.0000000   0.0000000   0.0000000   0.0000000
 AtZNuc=   6.0000000   6.0000000   6.0000000   6.0000000   6.0000000   6.0000000   6.0000000   6.0000000   6.0000000   6.0000000

  Atom        11          12          13          14          15          16          17          18          19          20
 IAtWgt=          12          12          12          12           1           1           1           1           1           1
 AtmWgt=  12.0000000  12.0000000  12.0000000  12.0000000   1.0078250   1.0078250   1.0078250   1.0078250   1.0078250   1.0078250
 NucSpn=           0           0           0           0           1           1           1           1           1           1
 AtZEff=  -0.0000000  -0.0000000  -0.0000000  -0.0000000  -0.0000000  -0.0000000  -0.0000000  -0.0000000  -0.0000000  -0.0000000
 NQMom=    0.0000000   0.0000000   0.0000000   0.0000000   0.0000000   0.0000000   0.0000000   0.0000000   0.0000000   0.0000000
 NMagM=    0.0000000   0.0000000   0.0000000   0.0000000   2.7928460   2.7928460   2.7928460   2.7928460   2.7928460   2.7928460
 AtZNuc=   6.0000000   6.0000000   6.0000000   6.0000000   1.0000000   1.0000000   1.0000000   1.0000000   1.0000000   1.0000000

  Atom        21          22          23          24
 IAtWgt=           1           1           1           1
 AtmWgt=   1.0078250   1.0078250   1.0078250   1.0078250
 NucSpn=           1           1           1           1
 AtZEff=  -0.0000000  -0.0000000  -0.0000000  -0.0000000
 NQMom=    0.0000000   0.0000000   0.0000000   0.0000000
 NMagM=    2.7928460   2.7928460   2.7928460   2.7928460
 AtZNuc=   1.0000000   1.0000000   1.0000000   1.0000000
 Leave Link  101 at Sun Oct 20 09:19:20 2024, MaxMem=   104857600 cpu:               0.0 elap:               0.1
 (Enter /curc/sw/install/gaussian/g16_c.02/g16/l202.exe)
                          Input orientation:                          
 ---------------------------------------------------------------------
 Center     Atomic      Atomic             Coordinates (Angstroms)
 Number     Number       Type             X           Y           Z
 ---------------------------------------------------------------------
      1          6           0       10.700510    5.448820   23.711030
      2          6           0        9.865350    6.360330   23.065680
      3          6           0       11.927080    5.091570   23.153150
      4          6           0       10.204940    6.812770   21.731540
      5          6           0       11.365520    6.338470   21.054530
      6          6           0       12.289180    5.580330   21.833910
      7          6           0       12.861330    4.315450   23.903200
      8          6           0       14.136940    4.097330   23.448770
      9          6           0       14.530310    4.648210   22.203980
     10          6           0       13.625700    5.335790   21.434520
     11          6           0        8.718980    6.895150   23.722970
     12          6           0        7.970540    7.893400   23.150170
     13          6           0        8.322250    8.375500   21.866460
     14          6           0        9.373770    7.816910   21.184030
     15          1           0        8.479030    6.520060   24.719740
     16          1           0        7.118000    8.320840   23.678520
     17          1           0        7.743140    9.177770   21.406940
     18          1           0        9.627160    8.175170   20.188130
     19          1           0       10.430100    5.077320   24.702450
     20          1           0       13.955360    5.767170   20.496600
     21          1           0       15.553710    4.520440   21.847230
     22          1           0       12.544220    3.937710   24.877370
     23          1           0       14.850500    3.529140   24.046180
     24          1           0       11.637200    6.718330   20.076910
 ---------------------------------------------------------------------
                    Distance matrix (angstroms):
                    1          2          3          4          5
     1  C    0.000000
     2  C    1.394568   0.000000
     3  C    1.394034   2.422423   0.000000
     4  C    2.454451   1.449121   2.819445   0.000000
     5  C    2.879359   2.509126   2.504858   1.424868   0.000000
     6  C    2.462671   2.828535   1.452721   2.423519   1.426659
     7  C    2.447570   3.722750   1.427501   4.243716   3.800655
     8  C    3.701940   4.849166   2.441185   5.077708   4.293700
     9  C    4.192797   5.043385   2.806118   4.859768   3.767507
    10  C    3.708370   4.224997   2.428712   3.737819   2.501634
    11  C    2.453258   1.425562   3.724178   2.486093   3.799294
    12  C    3.707192   2.438800   4.848141   2.858814   4.281986
    13  C    4.198097   2.807169   5.043269   2.450480   3.751028
    14  C    3.708614   2.429791   4.221884   1.413827   2.483873
    15  H    2.664587   2.164096   4.047695   3.463204   4.668893
    16  H    4.591724   3.430321   5.816481   3.948950   5.371828
    17  H    5.287716   3.897841   6.103412   3.429147   4.616000
    18  H    4.582127   3.410377   4.856909   2.138242   2.673202
    19  H    1.092725   2.155011   2.154410   3.448012   3.971502
    20  H    4.585625   4.866230   3.409929   4.084606   2.710155
    21  H    5.281022   6.101414   3.896673   5.820438   4.634063
    22  H    2.653878   4.040749   2.164530   4.861527   4.665521
    23  H    4.584748   5.816248   3.432940   6.141743   5.383994
    24  H    3.961802   3.492902   3.491938   2.190454   1.083441
                    6          7          8          9         10
     6  C    0.000000
     7  C    2.491834   0.000000
     8  C    2.867277   1.371592   0.000000
     9  C    2.455293   2.404906   1.416937   0.000000
    10  C    1.416191   2.778441   2.419164   1.372281   0.000000
    11  C    4.247779   4.883277   6.103874   6.413082   5.634226
    12  C    5.072818   6.106440   7.247330   7.379506   6.439383
    13  C    4.852893   6.421492   7.390336   7.248905   6.128050
    14  C    3.731521   5.640672   6.453845   6.137659   4.929261
    15  H    4.871175   4.973087   6.284658   6.815487   6.219596
    16  H    6.136292   7.005674   8.194897   8.402667   7.503081
    17  H    5.812947   7.487946   8.417875   8.198650   7.026100
    18  H    4.065481   6.257718   6.899179   6.367415   5.060029
    19  H    3.455100   2.670230   4.033951   4.820603   4.577994
    20  H    2.144636   3.861258   3.396564   2.120798   1.083724
    21  H    3.432302   3.393810   2.179722   1.091303   2.133623
    22  H    3.467837   1.091904   2.145491   3.405345   3.870070
    23  H    3.957509   2.143717   1.090370   2.179115   3.403658
    24  H    2.192526   4.681113   4.948513   4.144865   2.776446
                   11         12         13         14         15
    11  C    0.000000
    12  C    1.372868   0.000000
    13  C    2.407376   1.415638   0.000000
    14  C    2.779318   2.416736   1.372380   0.000000
    15  H    1.091705   2.146666   3.407117   3.870869   0.000000
    16  H    2.144226   1.090267   2.176412   3.400724   2.485830
    17  H    3.395087   2.177193   1.090946   2.135552   4.310406
    18  H    3.867601   3.405505   2.135349   1.088289   4.959141
    19  H    2.681757   4.048372   4.833618   4.582627   2.426617
    20  H    6.253117   6.883339   6.357030   5.066060   6.956432
    21  H    7.474703   8.401130   8.194869   7.035496   7.893091
    22  H    4.971071   6.288820   6.825290   6.224203   4.818625
    23  H    7.002144   8.196551   8.417626   7.521399   7.070708
    24  H    4.673438   4.926471   4.115531   2.748765   5.618649
                   16         17         18         19         20
    16  H    0.000000
    17  H    2.507031   0.000000
    18  H    4.301154   2.457689   0.000000
    19  H    4.747511   5.907100   5.533577   0.000000
    20  H    7.962119   7.145109   4.962553   5.531051   0.000000
    21  H    9.431748   9.104372   7.157769   5.891840   2.435828
    22  H    7.077636   7.909013   6.960911   2.408072   4.952715
    23  H    9.104236   9.454479   7.984574   4.729428   4.290638
    24  H    5.996899   4.793905   2.484957   5.054268   2.540612
                   21         22         23         24
    21  H    0.000000
    22  H    4.310261   0.000000
    23  H    2.512481   2.485304   0.000000
    24  H    4.827401   5.621294   6.020908   0.000000
 Stoichiometry    C14H10
 Framework group  C1[X(C14H10)]
 Deg. of freedom    66
 Full point group                 C1      NOp   1
 Largest Abelian subgroup         C1      NOp   1
 Largest concise Abelian subgroup C1      NOp   1
                         Standard orientation:                         
 ---------------------------------------------------------------------
 Center     Atomic      Atomic             Coordinates (Angstroms)
 Number     Number       Type             X           Y           Z
 ---------------------------------------------------------------------
      1          6           0        0.003909   -1.386121   -0.212101
      2          6           0       -1.210358   -0.703665   -0.144058
      3          6           0        1.211926   -0.691853   -0.167177
      4          6           0       -1.213969    0.744744   -0.189345
      5          6           0       -0.007007    1.491335   -0.316201
      6          6           0        1.209397    0.760865   -0.167429
      7          6           0        2.445383   -1.399071   -0.039951
      8          6           0        3.627842   -0.739729    0.179876
      9          6           0        3.623167    0.674086    0.273760
     10          6           0        2.460023    1.376642    0.082277
     11          6           0       -2.437403   -1.408471    0.028669
     12          6           0       -3.619282   -0.741020    0.234674
     13          6           0       -3.625656    0.674596    0.239256
     14          6           0       -2.468446    1.370459   -0.005835
     15          1           0       -2.403751   -2.499602    0.039612
     16          1           0       -4.545442   -1.291099    0.402971
     17          1           0       -4.556336    1.215878    0.415357
     18          1           0       -2.481862    2.458522   -0.023538
     19          1           0        0.009443   -2.478829   -0.214432
     20          1           0        2.476473    2.455735    0.180991
     21          1           0        4.547724    1.211807    0.490543
     22          1           0        2.413486   -2.489925   -0.075642
     23          1           0        4.558284   -1.293911    0.306623
     24          1           0       -0.015171    2.574638   -0.300964
 ---------------------------------------------------------------------
 Rotational constants (GHZ):           2.0859008           0.4578030           0.3791735
 Leave Link  202 at Sun Oct 20 09:19:21 2024, MaxMem=   104857600 cpu:               0.0 elap:               0.1
 (Enter /curc/sw/install/gaussian/g16_c.02/g16/l301.exe)
 Standard basis: CC-pVDZ (5D, 7F)
 Ernie: Thresh=  0.10000D-02 Tol=  0.10000D-05 Strict=F.
 Ernie:  28 primitive shells out of 358 were deleted.
 There are   260 symmetry adapted cartesian basis functions of A   symmetry.
 There are   246 symmetry adapted basis functions of A   symmetry.
   246 basis functions,   532 primitive gaussians,   260 cartesian basis functions
    47 alpha electrons       47 beta electrons
       nuclear repulsion energy       766.4648408551 Hartrees.
 IExCor= 1009 DFT=T Ex=PBE Corr=PBE ExCW=0 ScaHFX=  0.000000
 ScaDFX=  1.000000  1.000000  1.000000  1.000000 ScalE2=  1.000000  1.000000
 IRadAn=      5 IRanWt=     -1 IRanGd=            0 ICorTp=0 IEmpDi=  4
 NAtoms=   24 NActive=   24 NUniq=   24 SFac= 1.00D+00 NAtFMM=   60 NAOKFM=F Big=F
 Integral buffers will be    131072 words long.
 Regular integral format.
 Two-electron integral symmetry is turned on.
 Leave Link  301 at Sun Oct 20 09:19:23 2024, MaxMem=   104857600 cpu:               0.0 elap:               0.2
 (Enter /curc/sw/install/gaussian/g16_c.02/g16/l302.exe)
 NPDir=0 NMtPBC=     1 NCelOv=     1 NCel=       1 NClECP=     1 NCelD=      1
         NCelK=      1 NCelE2=     1 NClLst=     1 CellRange=     0.0.
 One-electron integrals computed using PRISM.
 One-electron integral symmetry used in STVInt
 NBasis=   246 RedAO= T EigKep=  1.53D-04  NBF=   246
 NBsUse=   246 1.00D-06 EigRej= -1.00D+00 NBFU=   246
 Precomputing XC quadrature grid using
 IXCGrd= 4 IRadAn=           5 IRanWt=          -1 IRanGd=           0 AccXCQ= 0.00D+00.
 Generated NRdTot=       0 NPtTot=           0 NUsed=           0 NTot=          32
 NSgBfM=   260   260   260   260   260 MxSgAt=    24 MxSgA2=    24.
 Leave Link  302 at Sun Oct 20 09:19:26 2024, MaxMem=   104857600 cpu:               0.4 elap:               0.7
 (Enter /curc/sw/install/gaussian/g16_c.02/g16/l303.exe)
 DipDrv:  MaxL=1.
 Leave Link  303 at Sun Oct 20 09:19:27 2024, MaxMem=   104857600 cpu:               0.0 elap:               0.1
 (Enter /curc/sw/install/gaussian/g16_c.02/g16/l308.exe)
 Leave Link  308 at Sun Oct 20 09:19:28 2024, MaxMem=   104857600 cpu:               0.0 elap:               0.0
 (Enter /curc/sw/install/gaussian/g16_c.02/g16/l401.exe)
 ExpMin= 1.22D-01 ExpMax= 6.67D+03 ExpMxC= 2.28D+02 IAcc=3 IRadAn=         5 AccDes= 0.00D+00
 Harris functional with IExCor= 1009 and IRadAn=       5 diagonalized for initial guess.
 HarFok:  IExCor= 1009 AccDes= 0.00D+00 IRadAn=         5 IDoV= 1 UseB2=F ITyADJ=14
 ICtDFT=  3500011 ScaDFX=  1.000000  1.000000  1.000000  1.000000
 FoFCou: FMM=F IPFlag=           0 FMFlag=      100000 FMFlg1=           0
         NFxFlg=           0 DoJE=T BraDBF=F KetDBF=T FulRan=T
         wScrn=  0.000000 ICntrl=       500 IOpCl=  0 I1Cent=   200000004 NGrid=           0
         NMat0=    1 NMatS0=      1 NMatT0=    0 NMatD0=    1 NMtDS0=    0 NMtDT0=    0
 Petite list used in FoFCou.
 Harris En= -539.057458700712    
 JPrj=0 DoOrth=F DoCkMO=F.
 Leave Link  401 at Sun Oct 20 09:19:34 2024, MaxMem=   104857600 cpu:               4.3 elap:               4.9
 (Enter /curc/sw/install/gaussian/g16_c.02/g16/l502.exe)
 Integral symmetry usage will be decided dynamically.
 Closed shell SCF:
 Using DIIS extrapolation, IDIIS=  1040.
 NGot=   104857600 LenX=   104717506 LenY=   104649465
 Requested convergence on RMS density matrix=1.00D-08 within 128 cycles.
 Requested convergence on MAX density matrix=1.00D-06.
 Requested convergence on             energy=1.00D-06.
 No special actions if energy rises.
 Fock matrices will be formed incrementally for  20 cycles.
 Integral accuracy reduced to 1.0D-05 until final iterations.

 Cycle   1  Pass 0  IDiag  1:
 FoFJK:  IHMeth= 1 ICntrl=     500 DoSepK=F KAlg= 0 I1Cent=           0 FoldK=F
 IRaf= 910000000 NMat=       1 IRICut=       1 DoRegI=T DoRafI=F ISym2E= 0 IDoP0=0 IntGTp=1.
 FoFCou: FMM=F IPFlag=           0 FMFlag=      100000 FMFlg1=           0
         NFxFlg=           0 DoJE=T BraDBF=F KetDBF=F FulRan=T
         wScrn=  0.000000 ICntrl=       500 IOpCl=  0 I1Cent=           0 NGrid=           0
         NMat0=    1 NMatS0=      1 NMatT0=    0 NMatD0=    1 NMtDS0=    0 NMtDT0=    0
 Symmetry not used in FoFCou.
 E= -538.644037049864    
 DIIS: error= 3.12D-02 at cycle   1 NSaved=   1.
 NSaved= 1 IEnMin= 1 EnMin= -538.644037049864     IErMin= 1 ErrMin= 3.12D-02
 ErrMax= 3.12D-02  0.00D+00 EMaxC= 1.00D-01 BMatC= 1.68D-01 BMatP= 1.68D-01
 IDIUse=3 WtCom= 6.88D-01 WtEn= 3.12D-01
 Coeff-Com:  0.100D+01
 Coeff-En:   0.100D+01
 Coeff:      0.100D+01
 Gap=     0.083 Goal=   None    Shift=    0.000
 GapD=    0.083 DampG=0.500 DampE=0.500 DampFc=0.2500 IDamp=-1.
 Damping current iteration by 2.50D-01
 RMSDP=5.76D-03 MaxDP=1.06D-01              OVMax= 1.80D-01

 Cycle   2  Pass 0  IDiag  1:
 RMSU=  1.36D-03    CP:  9.78D-01
 E= -538.723574615751     Delta-E=       -0.079537565887 Rises=F Damp=T
 DIIS: error= 1.55D-02 at cycle   2 NSaved=   2.
 NSaved= 2 IEnMin= 2 EnMin= -538.723574615751     IErMin= 2 ErrMin= 1.55D-02
 ErrMax= 1.55D-02  0.00D+00 EMaxC= 1.00D-01 BMatC= 3.71D-02 BMatP= 1.68D-01
 IDIUse=3 WtCom= 8.45D-01 WtEn= 1.55D-01
 Coeff-Com: -0.772D+00 0.177D+01
 Coeff-En:   0.000D+00 0.100D+01
 Coeff:     -0.652D+00 0.165D+01
 Gap=     0.084 Goal=   None    Shift=    0.000
 RMSDP=2.02D-03 MaxDP=6.18D-02 DE=-7.95D-02 OVMax= 1.14D-01

 Cycle   3  Pass 0  IDiag  1:
 RMSU=  1.31D-03    CP:  9.45D-01  1.99D+00
 E= -538.852865042246     Delta-E=       -0.129290426495 Rises=F Damp=F
 DIIS: error= 4.78D-03 at cycle   3 NSaved=   3.
 NSaved= 3 IEnMin= 3 EnMin= -538.852865042246     IErMin= 3 ErrMin= 4.78D-03
 ErrMax= 4.78D-03  0.00D+00 EMaxC= 1.00D-01 BMatC= 7.18D-03 BMatP= 3.71D-02
 IDIUse=3 WtCom= 9.52D-01 WtEn= 4.78D-02
 Coeff-Com: -0.388D+00 0.906D+00 0.482D+00
 Coeff-En:   0.000D+00 0.000D+00 0.100D+01
 Coeff:     -0.369D+00 0.863D+00 0.507D+00
 Gap=     0.084 Goal=   None    Shift=    0.000
 RMSDP=7.41D-04 MaxDP=4.94D-02 DE=-1.29D-01 OVMax= 1.06D-01

 Cycle   4  Pass 0  IDiag  1:
 RMSU=  5.91D-04    CP:  9.48D-01  1.89D+00  6.83D-01
 E= -538.854027849234     Delta-E=       -0.001162806988 Rises=F Damp=F
 DIIS: error= 6.22D-03 at cycle   4 NSaved=   4.
 NSaved= 4 IEnMin= 4 EnMin= -538.854027849234     IErMin= 3 ErrMin= 4.78D-03
 ErrMax= 6.22D-03  0.00D+00 EMaxC= 1.00D-01 BMatC= 5.70D-03 BMatP= 7.18D-03
 IDIUse=3 WtCom= 9.38D-01 WtEn= 6.22D-02
 Coeff-Com: -0.172D+00 0.406D+00 0.419D+00 0.347D+00
 Coeff-En:   0.000D+00 0.000D+00 0.473D+00 0.527D+00
 Coeff:     -0.161D+00 0.381D+00 0.422D+00 0.358D+00
 Gap=     0.083 Goal=   None    Shift=    0.000
 RMSDP=4.48D-04 MaxDP=2.61D-02 DE=-1.16D-03 OVMax= 7.83D-02

 Cycle   5  Pass 0  IDiag  1:
 RMSU=  1.85D-04    CP:  9.48D-01  1.90D+00  7.44D-01  3.23D-01
 E= -538.860597416390     Delta-E=       -0.006569567156 Rises=F Damp=F
 DIIS: error= 2.14D-03 at cycle   5 NSaved=   5.
 NSaved= 5 IEnMin= 5 EnMin= -538.860597416390     IErMin= 5 ErrMin= 2.14D-03
 ErrMax= 2.14D-03  0.00D+00 EMaxC= 1.00D-01 BMatC= 6.21D-04 BMatP= 5.70D-03
 IDIUse=3 WtCom= 9.79D-01 WtEn= 2.14D-02
 Coeff-Com: -0.828D-01 0.193D+00 0.256D+00 0.269D+00 0.364D+00
 Coeff-En:   0.000D+00 0.000D+00 0.000D+00 0.111D+00 0.889D+00
 Coeff:     -0.810D-01 0.189D+00 0.251D+00 0.266D+00 0.375D+00
 Gap=     0.084 Goal=   None    Shift=    0.000
 RMSDP=1.45D-04 MaxDP=7.92D-03 DE=-6.57D-03 OVMax= 2.36D-02

 Cycle   6  Pass 0  IDiag  1:
 RMSU=  7.67D-05    CP:  9.48D-01  1.91D+00  7.41D-01  4.37D-01  4.51D-01
 E= -538.861291782989     Delta-E=       -0.000694366599 Rises=F Damp=F
 DIIS: error= 5.25D-04 at cycle   6 NSaved=   6.
 NSaved= 6 IEnMin= 6 EnMin= -538.861291782989     IErMin= 6 ErrMin= 5.25D-04
 ErrMax= 5.25D-04  0.00D+00 EMaxC= 1.00D-01 BMatC= 5.80D-05 BMatP= 6.21D-04
 IDIUse=3 WtCom= 9.95D-01 WtEn= 5.25D-03
 Coeff-Com: -0.234D-01 0.508D-01 0.811D-01 0.102D+00 0.259D+00 0.530D+00
 Coeff-En:   0.000D+00 0.000D+00 0.000D+00 0.000D+00 0.120D+00 0.880D+00
 Coeff:     -0.233D-01 0.505D-01 0.807D-01 0.102D+00 0.259D+00 0.532D+00
 Gap=     0.084 Goal=   None    Shift=    0.000
 RMSDP=4.76D-05 MaxDP=1.57D-03 DE=-6.94D-04 OVMax= 5.99D-03

 Cycle   7  Pass 0  IDiag  1:
 RMSU=  2.48D-05    CP:  9.48D-01  1.91D+00  7.43D-01  4.28D-01  5.85D-01
                    CP:  5.93D-01
 E= -538.861347441989     Delta-E=       -0.000055659000 Rises=F Damp=F
 DIIS: error= 3.31D-04 at cycle   7 NSaved=   7.
 NSaved= 7 IEnMin= 7 EnMin= -538.861347441989     IErMin= 7 ErrMin= 3.31D-04
 ErrMax= 3.31D-04  0.00D+00 EMaxC= 1.00D-01 BMatC= 1.54D-05 BMatP= 5.80D-05
 IDIUse=3 WtCom= 9.97D-01 WtEn= 3.31D-03
 Coeff-Com: -0.853D-02 0.169D-01 0.348D-01 0.496D-01 0.161D+00 0.410D+00
 Coeff-Com:  0.337D+00
 Coeff-En:   0.000D+00 0.000D+00 0.000D+00 0.000D+00 0.000D+00 0.212D+00
 Coeff-En:   0.788D+00
 Coeff:     -0.850D-02 0.168D-01 0.347D-01 0.495D-01 0.161D+00 0.409D+00
 Coeff:      0.338D+00
 Gap=     0.084 Goal=   None    Shift=    0.000
 RMSDP=1.89D-05 MaxDP=5.08D-04 DE=-5.57D-05 OVMax= 1.57D-03

 Cycle   8  Pass 0  IDiag  1:
 RMSU=  7.92D-06    CP:  9.48D-01  1.91D+00  7.40D-01  4.26D-01  5.83D-01
                    CP:  7.03D-01  4.27D-01
 E= -538.861366299107     Delta-E=       -0.000018857118 Rises=F Damp=F
 DIIS: error= 3.10D-05 at cycle   8 NSaved=   8.
 NSaved= 8 IEnMin= 8 EnMin= -538.861366299107     IErMin= 8 ErrMin= 3.10D-05
 ErrMax= 3.10D-05  0.00D+00 EMaxC= 1.00D-01 BMatC= 2.55D-07 BMatP= 1.54D-05
 IDIUse=1 WtCom= 1.00D+00 WtEn= 0.00D+00
 Coeff-Com: -0.182D-02 0.306D-02 0.855D-02 0.130D-01 0.507D-01 0.146D+00
 Coeff-Com:  0.168D+00 0.612D+00
 Coeff:     -0.182D-02 0.306D-02 0.855D-02 0.130D-01 0.507D-01 0.146D+00
 Coeff:      0.168D+00 0.612D+00
 Gap=     0.084 Goal=   None    Shift=    0.000
 RMSDP=3.63D-06 MaxDP=1.19D-04 DE=-1.89D-05 OVMax= 2.60D-04

 Initial convergence to 1.0D-05 achieved.  Increase integral accuracy.
 Cycle   9  Pass 1  IDiag  1:
 E= -538.861396307352     Delta-E=       -0.000030008244 Rises=F Damp=F
 DIIS: error= 1.62D-04 at cycle   1 NSaved=   1.
 NSaved= 1 IEnMin= 1 EnMin= -538.861396307352     IErMin= 1 ErrMin= 1.62D-04
 ErrMax= 1.62D-04  0.00D+00 EMaxC= 1.00D-01 BMatC= 1.47D-06 BMatP= 1.47D-06
 IDIUse=3 WtCom= 9.98D-01 WtEn= 1.62D-03
 Coeff-Com:  0.100D+01
 Coeff-En:   0.100D+01
 Coeff:      0.100D+01
 Gap=     0.084 Goal=   None    Shift=    0.000
 RMSDP=3.63D-06 MaxDP=1.19D-04 DE=-3.00D-05 OVMax= 4.29D-04

 Cycle  10  Pass 1  IDiag  1:
 RMSU=  1.29D-04    CP:  1.00D+00
 E= -538.861396835285     Delta-E=       -0.000000527934 Rises=F Damp=F
 DIIS: error= 5.36D-05 at cycle   2 NSaved=   2.
 NSaved= 2 IEnMin= 2 EnMin= -538.861396835285     IErMin= 2 ErrMin= 5.36D-05
 ErrMax= 5.36D-05  0.00D+00 EMaxC= 1.00D-01 BMatC= 6.52D-07 BMatP= 1.47D-06
 IDIUse=1 WtCom= 1.00D+00 WtEn= 0.00D+00
 Coeff-Com:  0.346D+00 0.654D+00
 Coeff:      0.346D+00 0.654D+00
 Gap=     0.084 Goal=   None    Shift=    0.000
 RMSDP=7.74D-06 MaxDP=3.50D-04 DE=-5.28D-07 OVMax= 6.73D-04

 Cycle  11  Pass 1  IDiag  1:
 RMSU=  7.74D-06    CP:  1.00D+00  1.00D+00
 E= -538.861396373837     Delta-E=        0.000000461448 Rises=F Damp=F
 DIIS: error= 6.44D-05 at cycle   3 NSaved=   3.
 NSaved= 3 IEnMin= 2 EnMin= -538.861396835285     IErMin= 2 ErrMin= 5.36D-05
 ErrMax= 6.44D-05  0.00D+00 EMaxC= 1.00D-01 BMatC= 1.04D-06 BMatP= 6.52D-07
 IDIUse=1 WtCom= 1.00D+00 WtEn= 0.00D+00
 Coeff-Com:  0.633D-02 0.556D+00 0.438D+00
 Coeff:      0.633D-02 0.556D+00 0.438D+00
 Gap=     0.084 Goal=   None    Shift=    0.000
 RMSDP=4.56D-06 MaxDP=1.58D-04 DE= 4.61D-07 OVMax= 3.94D-04

 Cycle  12  Pass 1  IDiag  1:
 RMSU=  9.84D-07    CP:  1.00D+00  1.00D+00  4.24D-01
 E= -538.861397560544     Delta-E=       -0.000001186706 Rises=F Damp=F
 DIIS: error= 1.28D-05 at cycle   4 NSaved=   4.
 NSaved= 4 IEnMin= 4 EnMin= -538.861397560544     IErMin= 4 ErrMin= 1.28D-05
 ErrMax= 1.28D-05  0.00D+00 EMaxC= 1.00D-01 BMatC= 2.82D-08 BMatP= 6.52D-07
 IDIUse=1 WtCom= 1.00D+00 WtEn= 0.00D+00
 Coeff-Com:  0.264D-03 0.398D+00 0.320D+00 0.281D+00
 Coeff:      0.264D-03 0.398D+00 0.320D+00 0.281D+00
 Gap=     0.084 Goal=   None    Shift=    0.000
 RMSDP=7.82D-07 MaxDP=3.09D-05 DE=-1.19D-06 OVMax= 9.66D-05

 Cycle  13  Pass 1  IDiag  1:
 RMSU=  1.67D-07    CP:  1.00D+00  1.00D+00  4.40D-01  2.35D-01
 E= -538.861397593070     Delta-E=       -0.000000032526 Rises=F Damp=F
 DIIS: error= 2.03D-06 at cycle   5 NSaved=   5.
 NSaved= 5 IEnMin= 5 EnMin= -538.861397593070     IErMin= 5 ErrMin= 2.03D-06
 ErrMax= 2.03D-06  0.00D+00 EMaxC= 1.00D-01 BMatC= 6.94D-10 BMatP= 2.82D-08
 IDIUse=1 WtCom= 1.00D+00 WtEn= 0.00D+00
 Coeff-Com:  0.522D-05 0.272D+00 0.219D+00 0.204D+00 0.305D+00
 Coeff:      0.522D-05 0.272D+00 0.219D+00 0.204D+00 0.305D+00
 Gap=     0.084 Goal=   None    Shift=    0.000
 RMSDP=1.43D-07 MaxDP=8.44D-06 DE=-3.25D-08 OVMax= 2.29D-05

 Cycle  14  Pass 1  IDiag  1:
 RMSU=  5.77D-08    CP:  1.00D+00  1.00D+00  4.40D-01  2.85D-01  2.76D-01
 E= -538.861397593850     Delta-E=       -0.000000000780 Rises=F Damp=F
 DIIS: error= 5.91D-07 at cycle   6 NSaved=   6.
 NSaved= 6 IEnMin= 6 EnMin= -538.861397593850     IErMin= 6 ErrMin= 5.91D-07
 ErrMax= 5.91D-07  0.00D+00 EMaxC= 1.00D-01 BMatC= 4.72D-11 BMatP= 6.94D-10
 IDIUse=1 WtCom= 1.00D+00 WtEn= 0.00D+00
 Coeff-Com: -0.188D-04 0.167D+00 0.134D+00 0.127D+00 0.226D+00 0.346D+00
 Coeff:     -0.188D-04 0.167D+00 0.134D+00 0.127D+00 0.226D+00 0.346D+00
 Gap=     0.084 Goal=   None    Shift=    0.000
 RMSDP=4.27D-08 MaxDP=1.79D-06 DE=-7.80D-10 OVMax= 6.94D-06

 Cycle  15  Pass 1  IDiag  1:
 RMSU=  2.53D-08    CP:  1.00D+00  1.00D+00  4.40D-01  2.83D-01  3.76D-01
                    CP:  4.81D-01
 E= -538.861397593911     Delta-E=       -0.000000000061 Rises=F Damp=F
 DIIS: error= 1.83D-07 at cycle   7 NSaved=   7.
 NSaved= 7 IEnMin= 7 EnMin= -538.861397593911     IErMin= 7 ErrMin= 1.83D-07
 ErrMax= 1.83D-07  0.00D+00 EMaxC= 1.00D-01 BMatC= 5.70D-12 BMatP= 4.72D-11
 IDIUse=1 WtCom= 1.00D+00 WtEn= 0.00D+00
 Coeff-Com: -0.149D-04 0.683D-01 0.549D-01 0.523D-01 0.106D+00 0.260D+00
 Coeff-Com:  0.458D+00
 Coeff:     -0.149D-04 0.683D-01 0.549D-01 0.523D-01 0.106D+00 0.260D+00
 Coeff:      0.458D+00
 Gap=     0.084 Goal=   None    Shift=    0.000
 RMSDP=1.16D-08 MaxDP=5.09D-07 DE=-6.14D-11 OVMax= 1.59D-06

 Cycle  16  Pass 1  IDiag  1:
 RMSU=  5.76D-09    CP:  1.00D+00  1.00D+00  4.40D-01  2.83D-01  3.66D-01
                    CP:  5.86D-01  6.89D-01
 E= -538.861397593915     Delta-E=       -0.000000000003 Rises=F Damp=F
 DIIS: error= 3.20D-08 at cycle   8 NSaved=   8.
 NSaved= 8 IEnMin= 8 EnMin= -538.861397593915     IErMin= 8 ErrMin= 3.20D-08
 ErrMax= 3.20D-08  0.00D+00 EMaxC= 1.00D-01 BMatC= 2.15D-13 BMatP= 5.70D-12
 IDIUse=1 WtCom= 1.00D+00 WtEn= 0.00D+00
 Coeff-Com: -0.629D-05 0.249D-01 0.200D-01 0.192D-01 0.413D-01 0.119D+00
 Coeff-Com:  0.259D+00 0.517D+00
 Coeff:     -0.629D-05 0.249D-01 0.200D-01 0.192D-01 0.413D-01 0.119D+00
 Coeff:      0.259D+00 0.517D+00
 Gap=     0.084 Goal=   None    Shift=    0.000
 RMSDP=2.78D-09 MaxDP=7.19D-08 DE=-3.41D-12 OVMax= 1.64D-07

 SCF Done:  E(RPBE-PBE) =  -538.861397594     A.U. after   16 cycles
            NFock= 16  Conv=0.28D-08     -V/T= 2.0060
 KE= 5.356375577910D+02 PE=-2.782913219800D+03 EE= 9.419494235601D+02
 Leave Link  502 at Sun Oct 20 09:21:33 2024, MaxMem=   104857600 cpu:             112.8 elap:             115.2
 (Enter /curc/sw/install/gaussian/g16_c.02/g16/l801.exe)
 DoSCS=F DFT=T ScalE2(SS,OS)=  1.000000  1.000000
 ExpMin= 1.22D-01 ExpMax= 6.67D+03 ExpMxC= 2.28D+02 IAcc=3 IRadAn=         5 AccDes= 0.00D+00
 HarFok:  IExCor=  205 AccDes= 0.00D+00 IRadAn=         5 IDoV=-2 UseB2=F ITyADJ=14
 ICtDFT= 12500011 ScaDFX=  1.000000  1.000000  1.000000  1.000000
 Largest valence mixing into a core orbital is  3.18D-05
 Largest core mixing into a valence orbital is  1.95D-05
 Range of M.O.s used for correlation:    15   246
 NBasis=   246 NAE=    47 NBE=    47 NFC=    14 NFV=     0
 NROrb=    232 NOA=    33 NOB=    33 NVA=   199 NVB=   199

 **** Warning!!: The largest alpha MO coefficient is  0.13019781D+02


 **** Warning!!: The smallest alpha delta epsilon is  0.83852279D-01

 Leave Link  801 at Sun Oct 20 09:21:35 2024, MaxMem=   104857600 cpu:               0.3 elap:               0.6
 (Enter /curc/sw/install/gaussian/g16_c.02/g16/l914.exe)
 RHF ground state
 Two-electron integrals replicated using symmetry.
 MDV=   104857600 DFT=T DoStab=F Mixed=F DoRPA=T DoScal=T NonHer=F
 Making orbital integer symmetry assigments:
 Orbital symmetries:
       Occupied  (A) (A) (A) (A) (A) (A) (A) (A) (A) (A) (A) (A)
                 (A) (A) (A) (A) (A) (A) (A) (A) (A) (A) (A) (A)
                 (A) (A) (A) (A) (A) (A) (A) (A) (A) (A) (A) (A)
                 (A) (A) (A) (A) (A) (A) (A) (A) (A) (A) (A)
       Virtual   (A) (A) (A) (A) (A) (A) (A) (A) (A) (A) (A) (A)
                 (A) (A) (A) (A) (A) (A) (A) (A) (A) (A) (A) (A)
                 (A) (A) (A) (A) (A) (A) (A) (A) (A) (A) (A) (A)
                 (A) (A) (A) (A) (A) (A) (A) (A) (A) (A) (A) (A)
                 (A) (A) (A) (A) (A) (A) (A) (A) (A) (A) (A) (A)
                 (A) (A) (A) (A) (A) (A) (A) (A) (A) (A) (A) (A)
                 (A) (A) (A) (A) (A) (A) (A) (A) (A) (A) (A) (A)
                 (A) (A) (A) (A) (A) (A) (A) (A) (A) (A) (A) (A)
                 (A) (A) (A) (A) (A) (A) (A) (A) (A) (A) (A) (A)
                 (A) (A) (A) (A) (A) (A) (A) (A) (A) (A) (A) (A)
                 (A) (A) (A) (A) (A) (A) (A) (A) (A) (A) (A) (A)
                 (A) (A) (A) (A) (A) (A) (A) (A) (A) (A) (A) (A)
                 (A) (A) (A) (A) (A) (A) (A) (A) (A) (A) (A) (A)
                 (A) (A) (A) (A) (A) (A) (A) (A) (A) (A) (A) (A)
                 (A) (A) (A) (A) (A) (A) (A) (A) (A) (A) (A) (A)
                 (A) (A) (A) (A) (A) (A) (A) (A) (A) (A) (A) (A)
                 (A) (A) (A) (A) (A) (A) (A)
   160 initial guesses have been made.
 Convergence on wavefunction:    0.001000000000000
 Davidson Disk Diagonalization:  ConvIn= 1.00D-03 SkipCon=T Conv= 1.00D-03.
 Max sub-space:  2000 roots to seek:   160 dimension of matrix:        13134
 Iteration     1 Dimension   160 NMult     0 NNew    160
 CISAX will form   160 AO SS matrices at one time.
 NMat=   160 NSing=   160 JSym2X= 0.
 FoFJK:  IHMeth= 1 ICntrl=     500 DoSepK=F KAlg= 0 I1Cent=           0 FoldK=F
 IRaf= 910000000 NMat=     160 IRICut=       1 DoRegI=T DoRafI=F ISym2E= 0 IDoP0=3 IntGTp=3.
 FoFCou: FMM=F IPFlag=           0 FMFlag=      100000 FMFlg1=           0
         NFxFlg=           0 DoJE=F BraDBF=F KetDBF=F FulRan=T
         wScrn=  0.000000 ICntrl=       500 IOpCl=  0 I1Cent=           0 NGrid=           0
         NMat0=  160 NMatS0=    160 NMatT0=    0 NMatD0=  160 NMtDS0=    0 NMtDT0=    0
 Symmetry not used in FoFCou.
 New state      3 was old state      4
 New state      4 was old state      6
 New state      6 was old state      9
 New state      7 was old state     10
 New state      8 was old state     12
 New state      9 was old state     13
 New state     10 was old state      3
 New state     11 was old state     15
 New state     12 was old state     14
 New state     13 was old state     16
 New state     14 was old state     18
 New state     15 was old state     17
 New state     16 was old state     19
 New state     17 was old state      7
 New state     18 was old state     22
 New state     19 was old state     21
 New state     20 was old state     23
 New state     21 was old state     24
 New state     22 was old state     25
 New state     23 was old state     27
 New state     24 was old state     29
 New state     25 was old state     30
 New state     26 was old state     32
 New state     27 was old state     31
 New state     28 was old state     33
 New state     29 was old state     34
 New state     30 was old state     36
 New state     31 was old state     35
 New state     32 was old state     37
 New state     33 was old state     38
 New state     34 was old state      8
 New state     35 was old state     41
 New state     36 was old state     40
 New state     37 was old state     43
 New state     38 was old state     44
 New state     39 was old state     45
 New state     40 was old state     47
 Excitation Energies [eV] at current iteration:
 Root      1 :     3.088197684272111
 Root      2 :     3.623303235041110
 Root      3 :     3.910042851675650
 Root      4 :     4.754900260018851
 Root      5 :     4.809875588640015
 Root      6 :     5.116253502561573
 Root      7 :     5.249348184737522
 Root      8 :     5.305698857952759
 Root      9 :     5.423300098268376
 Root     10 :     5.567897043975505
 Root     11 :     5.582639331789442
 Root     12 :     5.632341302290285
 Root     13 :     5.696859065887637
 Root     14 :     6.014313180503172
 Root     15 :     6.059453933205343
 Root     16 :     6.086650174755664
 Root     17 :     6.154316662422388
 Root     18 :     6.244769038166059
 Root     19 :     6.355324119065055
 Root     20 :     6.428820763937044
 Root     21 :     6.481399257955948
 Root     22 :     6.563792149895372
 Root     23 :     6.624228816652527
 Root     24 :     6.662858724300559
 Root     25 :     6.799675378023574
 Root     26 :     6.876468903691957
 Root     27 :     6.910379957000462
 Root     28 :     7.006584674831700
 Root     29 :     7.027063225408599
 Root     30 :     7.054646392689688
 Root     31 :     7.075092825683808
 Root     32 :     7.191259004134927
 Root     33 :     7.200181653168281
 Root     34 :     7.228158685033418
 Root     35 :     7.267407821103591
 Root     36 :     7.296976670312923
 Root     37 :     7.301714387954307
 Root     38 :     7.415590650363872
 Root     39 :     7.475273991175576
 Root     40 :     7.492316022207811
 Root     41 :     7.521067048951087
 Root     42 :     7.524502066768748
 Root     43 :     7.544823894157258
 Root     44 :     7.581899187965547
 Root     45 :     7.640978721328655
 Root     46 :     7.650173651699048
 Root     47 :     7.660493172368996
 Root     48 :     7.687414698594609
 Root     49 :     7.727644023293879
 Root     50 :     7.767523602301350
 Root     51 :     7.792653311745085
 Root     52 :     7.926432344785305
 Root     53 :     8.041331926695404
 Root     54 :     8.055753259902730
 Root     55 :     8.111511712221548
 Root     56 :     8.192554177519774
 Root     57 :     8.200138072887068
 Root     58 :     8.222925136858850
 Root     59 :     8.251618068491085
 Root     60 :     8.268054858949370
 Root     61 :     8.319304205389724
 Root     62 :     8.341075993339331
 Root     63 :     8.401533942541610
 Root     64 :     8.437922672503618
 Root     65 :     8.493919079091286
 Root     66 :     8.518550459606303
 Root     67 :     8.540323605372560
 Root     68 :     8.557849251787234
 Root     69 :     8.589505637553700
 Root     70 :     8.601528835552799
 Root     71 :     8.622444293037477
 Root     72 :     8.644326118787681
 Root     73 :     8.658688544615512
 Root     74 :     8.673996621601441
 Root     75 :     8.705108777266851
 Root     76 :     8.730399061439252
 Root     77 :     8.736003993621109
 Root     78 :     8.738560125535409
 Root     79 :     8.783293838794435
 Root     80 :     8.817031884359780
 Root     81 :     8.822665425696869
 Root     82 :     8.828792406191594
 Root     83 :     8.840648021513013
 Root     84 :     8.877607353240556
 Root     85 :     8.897509738977142
 Root     86 :     8.900031769158716
 Root     87 :     8.931505854578726
 Root     88 :     8.967669859177292
 Root     89 :     9.000348254378498
 Root     90 :     9.036776000570338
 Root     91 :     9.070958477992578
 Root     92 :     9.100478696111050
 Root     93 :     9.114772573091381
 Root     94 :     9.133597579164123
 Root     95 :     9.159560552641645
 Root     96 :     9.162504129382553
 Root     97 :     9.223483607389932
 Root     98 :     9.241118702221973
 Root     99 :     9.274934757076537
 Root    100 :     9.286279962044713
 Root    101 :     9.294468742865099
 Root    102 :     9.322836467395682
 Root    103 :     9.362096501649933
 Root    104 :     9.395438227561170
 Root    105 :     9.439929596433995
 Root    106 :     9.477605742809418
 Root    107 :     9.522633801705231
 Root    108 :     9.541846380260091
 Root    109 :     9.554417108501703
 Root    110 :     9.567005397777605
 Root    111 :     9.578738876852357
 Root    112 :     9.594468878177430
 Root    113 :     9.648625817394535
 Root    114 :     9.651381259589186
 Root    115 :     9.660817626040908
 Root    116 :     9.677936827649912
 Root    117 :     9.686475177942151
 Root    118 :     9.689248133339477
 Root    119 :     9.744095630364237
 Root    120 :     9.754028528535018
 Root    121 :     9.835320855016365
 Root    122 :     9.865267769400971
 Root    123 :     9.899123860226574
 Root    124 :     9.930164889348942
 Root    125 :    10.036309273432840
 Root    126 :    10.044839011162455
 Root    127 :    10.091610819686304
 Root    128 :    10.094125379888510
 Root    129 :    10.110336934978092
 Root    130 :    10.135781913884603
 Root    131 :    10.140826479262492
 Root    132 :    10.162599121943069
 Root    133 :    10.165316480031668
 Root    134 :    10.187975583465201
 Root    135 :    10.188707289715394
 Root    136 :    10.209543162847687
 Root    137 :    10.244515095159834
 Root    138 :    10.277472104651499
 Root    139 :    10.278464357519150
 Root    140 :    10.285595046070279
 Root    141 :    10.302516396657850
 Root    142 :    10.314593245247556
 Root    143 :    10.320942846153560
 Root    144 :    10.336569688732441
 Root    145 :    10.361618330633679
 Root    146 :    10.430493817918283
 Root    147 :    10.442782699190545
 Root    148 :    10.451343414575103
 Root    149 :    10.464802520750608
 Root    150 :    10.532261921505631
 Root    151 :    10.565815455436738
 Root    152 :    10.582083492643449
 Root    153 :    10.587057089057778
 Root    154 :    10.619221573723594
 Root    155 :    10.744401893984552
 Root    156 :    11.107019569421336
 Root    157 :    11.359360607595219
 Root    158 :    11.431360344360318
 Root    159 :    12.138322040070976
 Root    160 :    12.285221445468062
 Iteration     2 Dimension   320 NMult   160 NNew    160
 CISAX will form   160 AO SS matrices at one time.
 NMat=   160 NSing=   160 JSym2X= 0.
 Root      1 not converged, maximum delta is    0.035396664530379
 Root      2 not converged, maximum delta is    0.009864297980905
 Root      3 not converged, maximum delta is    0.029802682702584
 New state      4 was old state      5
 Root      4 not converged, maximum delta is    0.113357908978642
 New state      5 was old state      4
 Root      5 not converged, maximum delta is    0.110745865841144
 New state      6 was old state     10
 Root      6 not converged, maximum delta is    0.352390194714301
 New state      7 was old state      6
 Root      7 not converged, maximum delta is    0.101011550393459
 New state      8 was old state      7
 Root      8 not converged, maximum delta is    0.091164052838804
 New state      9 was old state      8
 Root      9 not converged, maximum delta is    0.060684522301557
 New state     10 was old state     11
 Root     10 not converged, maximum delta is    0.094527110767605
 New state     11 was old state      9
 Root     11 not converged, maximum delta is    0.246931417574550
 Root     12 not converged, maximum delta is    0.072911373827490
 New state     13 was old state     17
 Root     13 not converged, maximum delta is    0.120436416447157
 New state     14 was old state     13
 Root     14 not converged, maximum delta is    0.074398436859026
 New state     15 was old state     14
 Root     15 not converged, maximum delta is    0.109268443896594
 New state     16 was old state     15
 Root     16 not converged, maximum delta is    0.041836064440430
 New state     17 was old state     16
 Root     17 not converged, maximum delta is    0.018693372297727
 Root     18 not converged, maximum delta is    0.020613998860591
 Root     19 not converged, maximum delta is    0.069064241785076
 Root     20 not converged, maximum delta is    0.247793734202211
 Root     21 not converged, maximum delta is    0.309389808453937
 New state     22 was old state     34
 Root     22 not converged, maximum delta is    0.230894620527190
 New state     23 was old state     24
 Root     23 not converged, maximum delta is    0.470514540688728
 New state     24 was old state     22
 Root     24 not converged, maximum delta is    0.276905804773347
 New state     25 was old state     23
 Root     25 not converged, maximum delta is    0.102290656871805
 New state     26 was old state     25
 Root     26 not converged, maximum delta is    0.030132611090310
 New state     27 was old state     26
 Root     27 not converged, maximum delta is    0.054755625249237
 New state     28 was old state     27
 Root     28 not converged, maximum delta is    0.030949982521300
 New state     29 was old state     28
 Root     29 not converged, maximum delta is    0.192446589470013
 New state     30 was old state     29
 Root     30 not converged, maximum delta is    0.322094496651225
 New state     31 was old state     37
 Root     31 not converged, maximum delta is    0.462657467813128
 New state     32 was old state     31
 Root     32 not converged, maximum delta is    0.363242214630353
 New state     33 was old state     30
 Root     33 not converged, maximum delta is    0.141995705994245
 New state     34 was old state     41
 Root     34 not converged, maximum delta is    0.599127983113463
 New state     35 was old state     32
 Root     35 not converged, maximum delta is    0.182583106581455
 New state     36 was old state     33
 Root     36 not converged, maximum delta is    0.143986719039149
 New state     37 was old state     35
 Root     37 not converged, maximum delta is    0.100771756307598
 New state     38 was old state     36
 Root     38 not converged, maximum delta is    0.117448956614118
 New state     39 was old state     38
 Root     39 not converged, maximum delta is    0.090567362280717
 Root     40 not converged, maximum delta is    0.380602417318949
 Excitation Energies [eV] at current iteration:
 Root      1 :     2.888378869699612   Change is   -0.199818814572498
 Root      2 :     3.592706311472402   Change is   -0.030596923568708
 Root      3 :     3.896988131817018   Change is   -0.013054719858632
 Root      4 :     4.593267937147460   Change is   -0.216607651492555
 Root      5 :     4.747785948495993   Change is   -0.007114311522858
 Root      6 :     4.983610481805816   Change is   -0.584286562169689
 Root      7 :     5.078311122527299   Change is   -0.037942380034275
 Root      8 :     5.212948333559717   Change is   -0.036399851177805
 Root      9 :     5.293596485029869   Change is   -0.012102372922890
 Root     10 :     5.375090746391392   Change is   -0.207548585398050
 Root     11 :     5.437443107445600   Change is    0.014143009177224
 Root     12 :     5.505407744107146   Change is   -0.126933558183139
 Root     13 :     5.651366939844862   Change is   -0.502949722577526
 Root     14 :     5.685710957800999   Change is   -0.011148108086638
 Root     15 :     6.013180079242653   Change is   -0.001133101260519
 Root     16 :     6.015915321006015   Change is   -0.043538612199328
 Root     17 :     6.080515729701932   Change is   -0.006134445053732
 Root     18 :     6.238925816021373   Change is   -0.005843222144685
 Root     19 :     6.325210714814643   Change is   -0.030113404250411
 Root     20 :     6.396118303430302   Change is   -0.032702460506743
 Root     21 :     6.423461748747784   Change is   -0.057937509208164
 Root     22 :     6.473824017945237   Change is   -0.754334667088181
 Root     23 :     6.550495574114748   Change is   -0.112363150185811
 Root     24 :     6.566178503751984   Change is    0.002386353856612
 Root     25 :     6.616724985898195   Change is   -0.007503830754332
 Root     26 :     6.779793258574834   Change is   -0.019882119448740
 Root     27 :     6.839988352549564   Change is   -0.036480551142393
 Root     28 :     6.897187021019844   Change is   -0.013192935980618
 Root     29 :     6.992142265719571   Change is   -0.014442409112129
 Root     30 :     7.013292185191203   Change is   -0.013771040217397
 Root     31 :     7.024278671352190   Change is   -0.277435716602118
 Root     32 :     7.036685875663176   Change is   -0.038406950020632
 Root     33 :     7.051015082288576   Change is   -0.003631310401112
 Root     34 :     7.080054242529255   Change is   -0.441012806421832
 Root     35 :     7.188642782063846   Change is   -0.002616222071081
 Root     36 :     7.198910483827123   Change is   -0.001271169341158
 Root     37 :     7.263442497966091   Change is   -0.003965323137500
 Root     38 :     7.268749318471922   Change is   -0.028227351841001
 Root     39 :     7.412102806522467   Change is   -0.003487843841405
 Root     40 :     7.437028911288648   Change is   -0.055287110919163
 Root     41 :     7.453086313734775   Change is   -0.814968545214595
 Root     42 :     7.470467297600570   Change is   -0.004806693575006
 Root     43 :     7.506049139999230   Change is   -0.038774754158027
 Root     44 :     7.513924010609673   Change is   -0.010578056159075
 Root     45 :     7.576133290732420   Change is   -0.005765897233127
 Root     46 :     7.588284827123069   Change is   -0.061888824575980
 Root     47 :     7.631616557081109   Change is   -0.009362164247546
 Root     48 :     7.651996375951902   Change is   -0.008496796417093
 Root     49 :     7.656281592438045   Change is   -1.002406952177467
 Root     50 :     7.675392565130235   Change is   -0.012022133464374
 Root     51 :     7.726203049227950   Change is   -0.001440974065929
 Root     52 :     7.736045218995378   Change is   -0.031478383305972
 Root     53 :     7.813225963651495   Change is    0.020572651906409
 Root     54 :     7.898361722477945   Change is   -0.028070622307360
 Root     55 :     7.933818039795458   Change is   -0.107513886899946
 Root     56 :     7.960343055356099   Change is   -0.778217070179309
 Root     57 :     8.047928028699197   Change is   -0.007825231203534
 Root     58 :     8.096357981215130   Change is   -0.015153731006418
 Root     59 :     8.188599969763512   Change is   -0.003954207756263
 Root     60 :     8.197121045562318   Change is   -0.003017027324750
 Root     61 :     8.208180820963150   Change is   -0.043437247527935
 Root     62 :     8.221656358999509   Change is   -0.001268777859340
 Root     63 :     8.240187365351963   Change is   -0.197735307151656
 Root     64 :     8.313437150533552   Change is   -0.005867054856172
 Root     65 :     8.330734020424973   Change is   -0.010341972914358
 Root     66 :     8.383949634642205   Change is   -0.017584307899405
 Root     67 :     8.458370506965400   Change is   -0.035548572125888
 Root     68 :     8.502033382472611   Change is   -0.016517077133693
 Root     69 :     8.528691496016146   Change is   -0.029157755771089
 Root     70 :     8.535826197489095   Change is   -0.200177796132013
 Root     71 :     8.537174166524842   Change is   -0.003149438847718
 Root     72 :     8.557754052223512   Change is   -0.086572066564170
 Root     73 :     8.585302067621541   Change is   -0.004203569932159
 Root     74 :     8.596956030863836   Change is   -0.004572804688962
 Root     75 :     8.610218083717660   Change is   -0.012226209319816
 Root     76 :     8.652615350027611   Change is   -0.021381271573829
 Root     77 :     8.664275699782300   Change is   -0.066123361656952
 Root     78 :     8.676590626467695   Change is   -0.028518150799157
 Root     79 :     8.719122820139438
 Root     80 :     8.767161850730520   Change is   -0.016131988063914
 Root     81 :     8.788407079106017   Change is   -0.052240942406997
 Root     82 :     8.801694967024526   Change is   -0.020970458672344
 Root     83 :     8.809966648783051   Change is   -0.007065235576729
 Root     84 :     8.816149404512508   Change is   -0.012643001679086
 Root     85 :     8.844018007921793   Change is   -0.056013761236923
 Root     86 :     8.863572234188878   Change is   -0.033937504788265
 Root     87 :     8.869008644620097   Change is   -0.008598708620460
 Root     88 :     8.902463269895351   Change is   -0.168495208097227
 Root     89 :     8.913246427897883   Change is   -1.831155466086668
 Root     90 :     8.935623410254031   Change is    0.004117555675305
 Root     91 :     8.972544844083208   Change is   -0.027803410295291
 Root     92 :     9.018016732169684   Change is   -0.018759268400654
 Root     93 :     9.044645664213274   Change is   -0.117858465169280
 Root     94 :     9.049491616729100   Change is   -0.065280956362281
 Root     95 :     9.101128033637224   Change is    0.000649337526174
 Root     96 :     9.128035799612405   Change is   -0.005561779551717
 Root     97 :     9.154342195919625   Change is   -0.005218356722019
 Root     98 :     9.160784498070903   Change is   -0.062699109319029
 Root     99 :     9.210470223922243   Change is   -0.030648478299731
 Root    100 :     9.222681262350896   Change is   -0.071787480514202
 Root    101 :     9.253443183628679   Change is   -0.021491573447857
 Root    102 :     9.274734585622312   Change is   -0.011545376422402
 Root    103 :     9.291307198765871   Change is   -0.031529268629811
 Root    104 :     9.336984493520895   Change is   -0.185649308184337
 Root    105 :     9.350821268342850   Change is   -0.011275233307084
 Root    106 :     9.379267753581047   Change is   -0.016170473980124
 Root    107 :     9.386868613988533   Change is   -0.090737128820886
 Root    108 :     9.430658103538722   Change is   -0.009271492895273
 Root    109 :     9.473608910622126   Change is   -0.068237469637965
 Root    110 :     9.517238657989875   Change is   -0.077230220187557
 Root    111 :     9.537546468803500   Change is   -0.016870639698203
 Root    112 :     9.543728934247145   Change is   -0.023276463530460
 Root    113 :     9.545436950730556   Change is   -0.816181379903123
 Root    114 :     9.568327534199968   Change is   -0.010411342652390
 Root    115 :     9.625397691015198   Change is   -0.035419935025709
 Root    116 :     9.638962453691674   Change is   -0.009663363702862
 Root    117 :     9.643799266924342   Change is   -0.007581992664844
 Root    118 :     9.666154617992024   Change is   -0.011782209657886
 Root    119 :     9.675346678186743   Change is   -0.011128499755408
 Root    120 :     9.680654915231935   Change is   -0.008593218107542
 Root    121 :     9.706974586196147   Change is   -0.037121044168091
 Root    122 :     9.719163514310701   Change is   -0.034865014224317
 Root    123 :     9.740051070292056   Change is   -0.095269784724310
 Root    124 :     9.839793720306254   Change is   -0.025474049094715
 Root    125 :     9.852867242114801   Change is   -0.046256618111773
 Root    126 :     9.896006731331914   Change is   -1.211012838089422
 Root    127 :     9.913210252735714   Change is   -0.016954636613228
 Root    128 :    10.032979062151666   Change is   -0.003330211281172
 Root    129 :    10.039573867773687   Change is   -0.005265143388770
 Root    130 :    10.046098499993365   Change is   -0.048026879895144
 Root    131 :    10.053567519289318   Change is   -0.038043300396985
 Root    132 :    10.097209498653442   Change is   -0.013127436324651
 Root    133 :    10.114280096952973   Change is   -0.026546382309519
 Root    134 :    10.127868769330986   Change is   -0.060106814134215
 Root    135 :    10.129550475740686   Change is   -0.006231438143917
 Root    136 :    10.141134473896090   Change is   -0.047572815819304
 Root    137 :    10.146102053640790   Change is   -0.016497068302279
 Root    138 :    10.155068133662134   Change is   -0.010248346369535
 Root    139 :    10.166018202948935   Change is   -0.043524959898753
 Root    140 :    10.174300012664308   Change is   -0.111295033405972
 Root    141 :    10.211626928462863   Change is   -0.124942760269579
 Root    142 :    10.220214695529911   Change is   -1.211145648830407
 Root    143 :    10.252006615957450   Change is    0.007491520797617
 Root    144 :    10.262838003755350   Change is   -0.014634100896149
 Root    145 :    10.276180173271912   Change is   -0.002284184247239
 Root    146 :    10.279720899158754   Change is   -0.022795497499097
 Root    147 :    10.309739391707485   Change is   -0.004853853540071
 Root    148 :    10.311624472523773   Change is   -0.009318373629789
 Root    149 :    10.332146282385096   Change is   -0.110636416805448
 Root    150 :    10.375899456973714   Change is   -0.054594360944568
 Root    151 :    10.400302334818610   Change is   -0.181781157824839
 Root    152 :    10.409081678107905   Change is   -0.042261736467197
 Root    153 :    10.439136594540154   Change is   -0.126678860896585
 Root    154 :    10.467125341495821   Change is   -0.152096232227773
 Root    155 :    10.468388426691030   Change is    0.003585905940423
 Root    156 :    10.479529850883020   Change is   -0.052732070622612
 Root    157 :    10.554823383651085   Change is   -0.032233705406692
 Root    158 :    10.616862231934002   Change is   -1.521459808136973
 Root    159 :    10.645620529487152
 Root    160 :    10.655644133420587   Change is   -0.703716474174632
 Iteration     3 Dimension   360 NMult   320 NNew     40
 CISAX will form    40 AO SS matrices at one time.
 NMat=    40 NSing=    40 JSym2X= 0.
 Root      1 has converged.
 Root      2 has converged.
 Root      3 has converged.
 Root      4 not converged, maximum delta is    0.001250343338864
 Root      5 has converged.
 Root      6 not converged, maximum delta is    0.002429334033564
 Root      7 not converged, maximum delta is    0.001507678794477
 Root      8 not converged, maximum delta is    0.002059733032635
 Root      9 not converged, maximum delta is    0.003092779852399
 Root     10 not converged, maximum delta is    0.005064507759170
 Root     11 not converged, maximum delta is    0.001648016848655
 Root     12 not converged, maximum delta is    0.003302582664207
 Root     13 not converged, maximum delta is    0.012010015188648
 Root     14 not converged, maximum delta is    0.009215790780910
 Root     15 not converged, maximum delta is    0.016569547994623
 Root     16 not converged, maximum delta is    0.018644318183115
 Root     17 has converged.
 Root     18 not converged, maximum delta is    0.002633184492142
 Root     19 not converged, maximum delta is    0.005914498016868
 Root     20 not converged, maximum delta is    0.011404195807983
 Root     21 not converged, maximum delta is    0.015182593453569
 Root     22 not converged, maximum delta is    0.034917942168670
 Root     23 not converged, maximum delta is    0.026409425967648
 Root     24 not converged, maximum delta is    0.013040131781459
 Root     25 not converged, maximum delta is    0.001734719941999
 Root     26 not converged, maximum delta is    0.001757020863277
 Root     27 not converged, maximum delta is    0.001073938231140
 Root     28 not converged, maximum delta is    0.006464083488928
 Root     29 not converged, maximum delta is    0.133523747372723
 Root     30 not converged, maximum delta is    0.218843965533191
 Root     31 not converged, maximum delta is    0.118932848614732
 Root     32 not converged, maximum delta is    0.072636784346308
 Root     33 not converged, maximum delta is    0.039941791002543
 Root     34 not converged, maximum delta is    0.028361330996349
 Root     35 not converged, maximum delta is    0.010830497061631
 Root     36 not converged, maximum delta is    0.009961849620435
 Root     37 not converged, maximum delta is    0.010920212167834
 Root     38 not converged, maximum delta is    0.011502013305918
 Root     39 not converged, maximum delta is    0.010709669202776
 Root     40 not converged, maximum delta is    0.016576680062188
 Excitation Energies [eV] at current iteration:
 Root      1 :     2.884926026308259   Change is   -0.003452843391354
 Root      2 :     3.591981083585103   Change is   -0.000725227887299
 Root      3 :     3.896524797025690   Change is   -0.000463334791327
 Root      4 :     4.589002578984156   Change is   -0.004265358163305
 Root      5 :     4.747137661597066   Change is   -0.000648286898927
 Root      6 :     4.967797136803565   Change is   -0.015813345002251
 Root      7 :     5.077448265444953   Change is   -0.000862857082345
 Root      8 :     5.211683416295868   Change is   -0.001264917263848
 Root      9 :     5.293104209224982   Change is   -0.000492275804886
 Root     10 :     5.371125856715020   Change is   -0.003964889676373
 Root     11 :     5.436884985917071   Change is   -0.000558121528529
 Root     12 :     5.502778536347491   Change is   -0.002629207759655
 Root     13 :     5.644620111418006   Change is   -0.006746828426856
 Root     14 :     5.685373660353474   Change is   -0.000337297447525
 Root     15 :     6.012963447262646   Change is   -0.000216631980007
 Root     16 :     6.014255569937968   Change is   -0.001659751068047
 Root     17 :     6.080379501471974   Change is   -0.000136228229959
 Root     18 :     6.238685956558555   Change is   -0.000239859462818
 Root     19 :     6.324129570035167   Change is   -0.001081144779477
 Root     20 :     6.394197250667203   Change is   -0.001921052763098
 Root     21 :     6.422054095805501   Change is   -0.001407652942282
 Root     22 :     6.457867764638917   Change is   -0.015956253306321
 Root     23 :     6.547661618537981   Change is   -0.002833955576768
 Root     24 :     6.564330839810730   Change is   -0.001847663941254
 Root     25 :     6.616339471925007   Change is   -0.000385513973189
 Root     26 :     6.779025967331782   Change is   -0.000767291243052
 Root     27 :     6.839215336941853   Change is   -0.000773015607711
 Root     28 :     6.896251232196569   Change is   -0.000935788823275
 Root     29 :     6.985049248681976   Change is   -0.007093017037595
 Root     30 :     7.008436289261132   Change is   -0.004855895930070
 Root     31 :     7.021106807556718   Change is   -0.003171863795471
 Root     32 :     7.031501636897836   Change is   -0.005184238765340
 Root     33 :     7.049686134579432   Change is   -0.001328947709143
 Root     34 :     7.077821166067286   Change is   -0.002233076461969
 Root     35 :     7.187645110026682   Change is   -0.000997672037164
 Root     36 :     7.198503464149326   Change is   -0.000407019677796
 Root     37 :     7.263233966180717   Change is   -0.000208531785373
 Root     38 :     7.268060859464622   Change is   -0.000688459007300
 Root     39 :     7.411817504910363   Change is   -0.000285301612104
 Root     40 :     7.434909640711856   Change is   -0.002119270576792
 Iteration     4 Dimension   395 NMult   360 NNew     35
 CISAX will form    35 AO SS matrices at one time.
 NMat=    35 NSing=    35 JSym2X= 0.
 Root      1 has converged.
 Root      2 has converged.
 Root      3 has converged.
 Root      4 has converged.
 Root      5 has converged.
 Root      6 has converged.
 Root      7 has converged.
 Root      8 has converged.
 Root      9 has converged.
 Root     10 has converged.
 Root     11 has converged.
 Root     12 has converged.
 Root     13 not converged, maximum delta is    0.001473348228469
 Root     14 not converged, maximum delta is    0.001117198866733
 Root     15 not converged, maximum delta is    0.005777249161595
 Root     16 not converged, maximum delta is    0.006502288368013
 Root     17 has converged.
 Root     18 has converged.
 Root     19 has converged.
 Root     20 not converged, maximum delta is    0.001549393506283
 Root     21 not converged, maximum delta is    0.002286667659826
 Root     22 not converged, maximum delta is    0.003487161490862
 Root     23 not converged, maximum delta is    0.002515485701713
 Root     24 not converged, maximum delta is    0.001411459402617
 Root     25 has converged.
 Root     26 has converged.
 Root     27 has converged.
 Root     28 has converged.
 Root     29 not converged, maximum delta is    0.015315936802131
 Root     30 not converged, maximum delta is    0.016903438933212
 Root     31 not converged, maximum delta is    0.008534794750295
 Root     32 not converged, maximum delta is    0.011334705433835
 Root     33 not converged, maximum delta is    0.004349732357854
 Root     34 not converged, maximum delta is    0.003513677500851
 Root     35 not converged, maximum delta is    0.001034348196585
 Root     36 has converged.
 Root     37 not converged, maximum delta is    0.001669297302978
 Root     38 not converged, maximum delta is    0.001754467138681
 Root     39 not converged, maximum delta is    0.001347383601568
 Root     40 not converged, maximum delta is    0.002014287536952
 Excitation Energies [eV] at current iteration:
 Root      1 :     2.884462989439139   Change is   -0.000463036869119
 Root      2 :     3.591882048568741   Change is   -0.000099035016362
 Root      3 :     3.896458840935304   Change is   -0.000065956090386
 Root      4 :     4.588337191923384   Change is   -0.000665387060771
 Root      5 :     4.747116270074843   Change is   -0.000021391522224
 Root      6 :     4.966145928278811   Change is   -0.001651208524754
 Root      7 :     5.077335761459995   Change is   -0.000112503984957
 Root      8 :     5.211509445021678   Change is   -0.000173971274190
 Root      9 :     5.293029683650268   Change is   -0.000074525574714
 Root     10 :     5.370571916909627   Change is   -0.000553939805393
 Root     11 :     5.436816627568753   Change is   -0.000068358348318
 Root     12 :     5.502415153685681   Change is   -0.000363382661810
 Root     13 :     5.643702702120563   Change is   -0.000917409297443
 Root     14 :     5.685328549682021   Change is   -0.000045110671453
 Root     15 :     6.012934209798812   Change is   -0.000029237463834
 Root     16 :     6.014042027881168   Change is   -0.000213542056800
 Root     17 :     6.080375161782050   Change is   -0.000004339689923
 Root     18 :     6.238656403755741   Change is   -0.000029552802815
 Root     19 :     6.323979777044727   Change is   -0.000149792990439
 Root     20 :     6.393936863305597   Change is   -0.000260387361606
 Root     21 :     6.421874464064631   Change is   -0.000179631740871
 Root     22 :     6.456007922237305   Change is   -0.001859842401612
 Root     23 :     6.547359387555305   Change is   -0.000302230982675
 Root     24 :     6.564134723755970   Change is   -0.000196116054760
 Root     25 :     6.616287047124624   Change is   -0.000052424800382
 Root     26 :     6.778919046449595   Change is   -0.000106920882188
 Root     27 :     6.839118552766577   Change is   -0.000096784175276
 Root     28 :     6.896127838293823   Change is   -0.000123393902746
 Root     29 :     6.984047144027317   Change is   -0.001002104654659
 Root     30 :     7.007976657790380   Change is   -0.000459631470752
 Root     31 :     7.020895255732513   Change is   -0.000211551824205
 Root     32 :     7.030788124995345   Change is   -0.000713511902492
 Root     33 :     7.049561580950463   Change is   -0.000124553628970
 Root     34 :     7.077551867163620   Change is   -0.000269298903667
 Root     35 :     7.187524434718747   Change is   -0.000120675307935
 Root     36 :     7.198454538962630   Change is   -0.000048925186696
 Root     37 :     7.263207372291539   Change is   -0.000026593889179
 Root     38 :     7.267970308673694   Change is   -0.000090550790928
 Root     39 :     7.411781260343894   Change is   -0.000036244566468
 Root     40 :     7.434662405825107   Change is   -0.000247234886749
 Iteration     5 Dimension   415 NMult   395 NNew     20
 CISAX will form    20 AO SS matrices at one time.
 NMat=    20 NSing=    20 JSym2X= 0.
 Root      1 has converged.
 Root      2 has converged.
 Root      3 has converged.
 Root      4 has converged.
 Root      5 has converged.
 Root      6 has converged.
 Root      7 has converged.
 Root      8 has converged.
 Root      9 has converged.
 Root     10 has converged.
 Root     11 has converged.
 Root     12 has converged.
 Root     13 has converged.
 Root     14 has converged.
 Root     15 not converged, maximum delta is    0.001185410711563
 Root     16 not converged, maximum delta is    0.001334667170392
 Root     17 has converged.
 Root     18 has converged.
 Root     19 has converged.
 Root     20 has converged.
 Root     21 has converged.
 Root     22 has converged.
 Root     23 has converged.
 Root     24 has converged.
 Root     25 has converged.
 Root     26 has converged.
 Root     27 has converged.
 Root     28 has converged.
 Root     29 not converged, maximum delta is    0.002909080426863
 Root     30 not converged, maximum delta is    0.003143160522826
 Root     31 not converged, maximum delta is    0.001700950265075
 Root     32 not converged, maximum delta is    0.002492744521575
 Root     33 has converged.
 Root     34 has converged.
 Root     35 has converged.
 Root     36 has converged.
 Root     37 has converged.
 Root     38 has converged.
 Root     39 has converged.
 Root     40 has converged.
 Excitation Energies [eV] at current iteration:
 Root      1 :     2.884419258901769   Change is   -0.000043730537370
 Root      2 :     3.591872843564520   Change is   -0.000009205004221
 Root      3 :     3.896451565425768   Change is   -0.000007275509536
 Root      4 :     4.588234917007030   Change is   -0.000102274916354
 Root      5 :     4.747114396303708   Change is   -0.000001873771135
 Root      6 :     4.965844898375251   Change is   -0.000301029903560
 Root      7 :     5.077329517466732   Change is   -0.000006243993264
 Root      8 :     5.211508373405958   Change is   -0.000001071615720
 Root      9 :     5.293026193553063   Change is   -0.000003490097205
 Root     10 :     5.370512578123349   Change is   -0.000059338786278
 Root     11 :     5.436811315094627   Change is   -0.000005312474125
 Root     12 :     5.502406530977625   Change is   -0.000008622708055
 Root     13 :     5.643506035422956   Change is   -0.000196666697608
 Root     14 :     5.685320376455631   Change is   -0.000008173226389
 Root     15 :     6.012929053279903   Change is   -0.000005156518909
 Root     16 :     6.014005885288797   Change is   -0.000036142592371
 Root     17 :     6.080374879879431   Change is   -0.000000281902620
 Root     18 :     6.238655040360721   Change is   -0.000001363395019
 Root     19 :     6.323950705791044   Change is   -0.000029071253683
 Root     20 :     6.393887600357488   Change is   -0.000049262948109
 Root     21 :     6.421841043737605   Change is   -0.000033420327026
 Root     22 :     6.455661039829060   Change is   -0.000346882408245
 Root     23 :     6.547301102996224   Change is   -0.000058284559081
 Root     24 :     6.564098662501130   Change is   -0.000036061254840
 Root     25 :     6.616284061073283   Change is   -0.000002986051341
 Root     26 :     6.778914983214766   Change is   -0.000004063234828
 Root     27 :     6.839108026167615   Change is   -0.000010526598962
 Root     28 :     6.896122207515661   Change is   -0.000005630778163
 Root     29 :     6.983850474080741   Change is   -0.000196669946576
 Root     30 :     7.007892270125193   Change is   -0.000084387665187
 Root     31 :     7.020855525588518   Change is   -0.000039730143995
 Root     32 :     7.030639359396814   Change is   -0.000148765598531
 Root     33 :     7.049538497483826   Change is   -0.000023083466637
 Root     34 :     7.077500152140924   Change is   -0.000051715022696
 Root     35 :     7.187504049306108   Change is   -0.000020385412639
 Root     36 :     7.198447909368588   Change is   -0.000006629594042
 Root     37 :     7.263203217652306   Change is   -0.000004154639233
 Root     38 :     7.267955153709785   Change is   -0.000015154963909
 Root     39 :     7.411775235898128   Change is   -0.000006024445766
 Root     40 :     7.434619226780254   Change is   -0.000043179044854
 Iteration     6 Dimension   421 NMult   415 NNew      6
 CISAX will form     6 AO SS matrices at one time.
 NMat=     6 NSing=     6 JSym2X= 0.
 Root      1 has converged.
 Root      2 has converged.
 Root      3 has converged.
 Root      4 has converged.
 Root      5 has converged.
 Root      6 has converged.
 Root      7 has converged.
 Root      8 has converged.
 Root      9 has converged.
 Root     10 has converged.
 Root     11 has converged.
 Root     12 has converged.
 Root     13 has converged.
 Root     14 has converged.
 Root     15 has converged.
 Root     16 has converged.
 Root     17 has converged.
 Root     18 has converged.
 Root     19 has converged.
 Root     20 has converged.
 Root     21 has converged.
 Root     22 has converged.
 Root     23 has converged.
 Root     24 has converged.
 Root     25 has converged.
 Root     26 has converged.
 Root     27 has converged.
 Root     28 has converged.
 Root     29 has converged.
 Root     30 has converged.
 Root     31 has converged.
 Root     32 has converged.
 Root     33 has converged.
 Root     34 has converged.
 Root     35 has converged.
 Root     36 has converged.
 Root     37 has converged.
 Root     38 has converged.
 Root     39 has converged.
 Root     40 has converged.
 Excitation Energies [eV] at current iteration:
 Root      1 :     2.884415330220933   Change is   -0.000003928680836
 Root      2 :     3.591871933423718   Change is   -0.000000910140802
 Root      3 :     3.896450868111960   Change is   -0.000000697313808
 Root      4 :     4.588216123405723   Change is   -0.000018793601307
 Root      5 :     4.747114111358483   Change is   -0.000000284945225
 Root      6 :     4.965844161855870   Change is   -0.000000736519382
 Root      7 :     5.077328271016068   Change is   -0.000001246450664
 Root      8 :     5.211508257020572   Change is   -0.000000116385386
 Root      9 :     5.293026116858597   Change is   -0.000000076694465
 Root     10 :     5.370510920491136   Change is   -0.000001657632212
 Root     11 :     5.436811276444035   Change is   -0.000000038650592
 Root     12 :     5.502406005371659   Change is   -0.000000525605966
 Root     13 :     5.643499864629836   Change is   -0.000006170793120
 Root     14 :     5.685320290838429   Change is   -0.000000085617203
 Root     15 :     6.012928158908441   Change is   -0.000000894371463
 Root     16 :     6.013998326362239   Change is   -0.000007558926559
 Root     17 :     6.080374856792224   Change is   -0.000000023087207
 Root     18 :     6.238654967983456   Change is   -0.000000072377265
 Root     19 :     6.323946077258865   Change is   -0.000004628532179
 Root     20 :     6.393885867168575   Change is   -0.000001733188912
 Root     21 :     6.421840699013083   Change is   -0.000000344724523
 Root     22 :     6.455659091639136   Change is   -0.000001948189924
 Root     23 :     6.547299476864333   Change is   -0.000001626131891
 Root     24 :     6.564097933293750   Change is   -0.000000729207380
 Root     25 :     6.616283855364103   Change is   -0.000000205709179
 Root     26 :     6.778914792043014   Change is   -0.000000191171752
 Root     27 :     6.839106646401929   Change is   -0.000001379765686
 Root     28 :     6.896121526716541   Change is   -0.000000680799119
 Root     29 :     6.983815189347554   Change is   -0.000035284733188
 Root     30 :     7.007877319932803   Change is   -0.000014950192389
 Root     31 :     7.020848071185916   Change is   -0.000007454402602
 Root     32 :     7.030609113329102   Change is   -0.000030246067712
 Root     33 :     7.049534912007295   Change is   -0.000003585476531
 Root     34 :     7.077492233330307   Change is   -0.000007918810618
 Root     35 :     7.187501445998037   Change is   -0.000002603308071
 Root     36 :     7.198446820701349   Change is   -0.000001088667240
 Root     37 :     7.263203143258205   Change is   -0.000000074394101
 Root     38 :     7.267954798933464   Change is   -0.000000354776321
 Root     39 :     7.411775193843948   Change is   -0.000000042054181
 Root     40 :     7.434618833504800   Change is   -0.000000393275454
 Convergence achieved on expansion vectors.
 ***********************************************************************
 Excited states from <AA,BB:AA,BB> singles matrix:
 ***********************************************************************
 
 1PDM for each excited state written to RWF  633
 Ground to excited state transition densities written to RWF  633
 Ground to excited state transition electric dipole moments (Au):
       state          X           Y           Z        Dip. S.      Osc.
         1         0.0133     -0.7409      0.0268      0.5498      0.0389
         2         0.1545      0.0015      0.0002      0.0239      0.0021
         3         0.0096     -0.0015     -0.0043      0.0001      0.0000
         4         0.0634      0.0003     -0.0190      0.0044      0.0005
         5        -0.0031      0.0009      0.0136      0.0002      0.0000
         6        -3.6683     -0.0097     -0.0004     13.4564      1.6371
         7         0.0157      0.0179     -0.0369      0.0019      0.0002
         8        -0.0170     -0.0418     -0.0093      0.0021      0.0003
         9        -0.0136      0.0005     -0.0083      0.0003      0.0000
        10        -0.0646      0.0857      0.0462      0.0136      0.0018
        11         0.4248      0.0186     -0.0021      0.1808      0.0241
        12         0.0058     -0.1477      0.0009      0.0219      0.0029
        13         0.0296     -0.8861      0.0182      0.7863      0.1087
        14        -0.1291     -0.0920      0.0031      0.0251      0.0035
        15         0.0112     -0.0993      0.0098      0.0101      0.0015
        16        -0.1434     -0.0179      0.0051      0.0209      0.0031
        17        -0.1156      0.0128      0.0074      0.0136      0.0020
        18        -0.0021      0.0474      0.0181      0.0026      0.0004
        19         0.1909     -0.0728     -0.0009      0.0418      0.0065
        20         0.0711     -0.0272      0.0047      0.0058      0.0009
[...]
     9  C    0.023342   0.389897   4.828921   0.478356   0.000001  -0.000000
    10  C   -0.093505   0.028714   0.478356   4.926184   0.000009   0.000001
    11  C   -0.000413   0.000006   0.000001   0.000009   4.970979   0.445704
    12  C    0.000006   0.000000  -0.000000   0.000001   0.445704   4.848908
    13  C    0.000001  -0.000000   0.000000   0.000004   0.024207   0.390767
    14  C    0.000009   0.000001   0.000005  -0.000376  -0.094041   0.029910
    15  H   -0.000024  -0.000001   0.000000  -0.000001   0.392151  -0.065644
    16  H   -0.000000   0.000000   0.000000   0.000000  -0.045610   0.387003
    17  H    0.000000  -0.000000   0.000000  -0.000000   0.011083  -0.060458
    18  H   -0.000001   0.000000  -0.000001  -0.000013  -0.000488   0.011768
    19  H   -0.021536   0.001006  -0.000065  -0.000194  -0.021344   0.000931
    20  H   -0.000477   0.012101  -0.060811   0.382485  -0.000001   0.000000
    21  H    0.011069  -0.061348   0.387728  -0.042887   0.000000  -0.000000
    22  H    0.392388  -0.065441   0.011553  -0.001066  -0.000021  -0.000001
    23  H   -0.045515   0.387060  -0.057190   0.010386  -0.000000   0.000000
    24  H   -0.000148  -0.000027   0.000307  -0.017981  -0.000112  -0.000037
              13         14         15         16         17         18
     1  C   -0.000805   0.018421  -0.026869  -0.000459   0.000034  -0.000339
     2  C   -0.081031  -0.014847  -0.041734   0.009912   0.000000   0.014883
     3  C    0.000129  -0.000079   0.001643   0.000009   0.000001  -0.000057
     4  C    0.030614   0.420572   0.013909   0.000633   0.011350  -0.040262
     5  C    0.011352  -0.112660  -0.000128   0.000046  -0.000341  -0.025746
     6  C   -0.000755   0.007170  -0.000065  -0.000001   0.000006   0.001302
     7  C    0.000001   0.000009  -0.000024  -0.000000   0.000000  -0.000001
     8  C   -0.000000   0.000001  -0.000001   0.000000  -0.000000   0.000000
     9  C    0.000000   0.000005   0.000000   0.000000   0.000000  -0.000001
    10  C    0.000004  -0.000376  -0.000001   0.000000  -0.000000  -0.000013
    11  C    0.024207  -0.094041   0.392151  -0.045610   0.011083  -0.000488
    12  C    0.390767   0.029910  -0.065644   0.387003  -0.060458   0.011768
    13  C    4.835648   0.470184   0.011584  -0.056991   0.388382  -0.064000
    14  C    0.470184   4.927543  -0.001096   0.010418  -0.044457   0.381716
    15  H    0.011584  -0.001096   0.772509  -0.016833  -0.000339   0.000072
    16  H   -0.056991   0.010418  -0.016833   0.753771  -0.015434  -0.000346
    17  H    0.388382  -0.044457  -0.000339  -0.015434   0.755615  -0.018779
    18  H   -0.064000   0.381716   0.000072  -0.000346  -0.018779   0.780350
    19  H   -0.000055  -0.000230   0.005036  -0.000028  -0.000001   0.000018
    20  H   -0.000001  -0.000022   0.000000   0.000000  -0.000000   0.000020
    21  H    0.000000  -0.000000   0.000000   0.000000  -0.000000  -0.000000
    22  H    0.000000  -0.000001   0.000028  -0.000000   0.000000   0.000000
    23  H    0.000000   0.000000  -0.000000  -0.000000   0.000000   0.000000
    24  H    0.000444  -0.018803   0.000013  -0.000001  -0.000019   0.005558
              19         20         21         22         23         24
     1  C    0.388040  -0.000327   0.000031  -0.026512  -0.000447  -0.001067
     2  C   -0.051352  -0.000031   0.000000   0.001783   0.000008   0.011577
     3  C   -0.052623   0.014571  -0.000078  -0.042118   0.010038   0.011544
     4  C    0.012966   0.001017   0.000006  -0.000074  -0.000000  -0.041031
     5  C   -0.000918  -0.024874  -0.000326  -0.000136   0.000045   0.380983
     6  C    0.012749  -0.044055   0.011614   0.013470   0.000580  -0.040469
     7  C   -0.021536  -0.000477   0.011069   0.392388  -0.045515  -0.000148
     8  C    0.001006   0.012101  -0.061348  -0.065441   0.387060  -0.000027
     9  C   -0.000065  -0.060811   0.387728   0.011553  -0.057190   0.000307
    10  C   -0.000194   0.382485  -0.042887  -0.001066   0.010386  -0.017981
    11  C   -0.021344  -0.000001   0.000000  -0.000021  -0.000000  -0.000112
    12  C    0.000931   0.000000  -0.000000  -0.000001   0.000000  -0.000037
    13  C   -0.000055  -0.000001   0.000000   0.000000   0.000000   0.000444
    14  C   -0.000230  -0.000022  -0.000000  -0.000001   0.000000  -0.018803
    15  H    0.005036   0.000000   0.000000   0.000028  -0.000000   0.000013
    16  H   -0.000028   0.000000   0.000000  -0.000000  -0.000000  -0.000001
    17  H   -0.000001  -0.000000  -0.000000   0.000000   0.000000  -0.000019
    18  H    0.000018   0.000020  -0.000000   0.000000   0.000000   0.005558
    19  H    0.773424   0.000019  -0.000002   0.004742  -0.000030   0.000056
    20  H    0.000019   0.780950  -0.019536   0.000074  -0.000358   0.005671
    21  H   -0.000002  -0.019536   0.755964  -0.000342  -0.015187  -0.000017
    22  H    0.004742   0.000074  -0.000342   0.771945  -0.016927   0.000012
    23  H   -0.000030  -0.000358  -0.015187  -0.016927   0.753662  -0.000001
    24  H    0.000056   0.005671  -0.000017   0.000012  -0.000001   0.748951
 Mulliken charges:
               1
     1  C   -0.024206
     2  C    0.059588
     3  C    0.057515
     4  C    0.038654
     5  C   -0.024760
     6  C    0.040137
     7  C    0.024044
     8  C    0.034516
     9  C    0.038362
    10  C    0.019142
    11  C    0.021843
    12  C    0.035372
    13  C    0.040321
    14  C    0.020664
    15  H   -0.044211
    16  H   -0.026090
    17  H   -0.026642
    18  H   -0.045654
    19  H   -0.050610
    20  H   -0.046417
    21  H   -0.026689
    22  H   -0.043356
    23  H   -0.026122
    24  H   -0.045402
 Sum of Mulliken charges =  -0.00000
 Mulliken charges with hydrogens summed into heavy atoms:
               1
     1  C   -0.074816
     2  C    0.059588
     3  C    0.057515
     4  C    0.038654
     5  C   -0.070162
     6  C    0.040137
     7  C   -0.019312
     8  C    0.008394
     9  C    0.011673
    10  C   -0.027275
    11  C   -0.022368
    12  C    0.009283
    13  C    0.013679
    14  C   -0.024990
 Electronic spatial extent (au):  <R**2>=           2830.1811
 Charge=              0.0000 electrons
 Dipole moment (field-independent basis, Debye):
    X=             -0.0075    Y=             -0.0668    Z=              0.3760  Tot=              0.3819
 Quadrupole moment (field-independent basis, Debye-Ang):
   XX=            -71.4794   YY=            -71.5781   ZZ=            -86.3086
   XY=             -0.0623   XZ=              0.0690   YZ=              0.2333
 Traceless Quadrupole moment (field-independent basis, Debye-Ang):
   XX=              4.9759   YY=              4.8772   ZZ=             -9.8532
   XY=             -0.0623   XZ=              0.0690   YZ=              0.2333
 Octapole moment (field-independent basis, Debye-Ang**2):
  XXX=              0.0579  YYY=             -0.1527  ZZZ=              0.4880  XYY=             -0.0611
  XXY=             -1.0029  XXZ=             12.5683  XZZ=              0.0172  YZZ=              0.0389
  YYZ=              0.4203  XYZ=              1.1754
 Hexadecapole moment (field-independent basis, Debye-Ang**3):
 XXXX=          -2810.4745 YYYY=           -706.2536 ZZZZ=           -114.7431 XXXY=             -1.3742
 XXXZ=             -0.1862 YYYX=             -0.3129 YYYZ=              0.9522 ZZZX=              0.1572
 ZZZY=              0.4435 XXYY=           -596.4545 XXZZ=           -579.2520 YYZZ=           -158.5565
 XXYZ=              3.2838 YYXZ=              0.7464 ZZXY=              0.4906
 N-N= 7.664648408551D+02 E-N=-2.782913226195D+03  KE= 5.356375577910D+02
 Leave Link  601 at Sun Oct 20 09:40:33 2024, MaxMem=   104857600 cpu:               0.0 elap:               0.1
 (Enter /curc/sw/install/gaussian/g16_c.02/g16/l9999.exe)
 Electronic transition elements 
                 1             2             3             4             5 
      1  -0.538755D+03 -0.538729D+03 -0.538718D+03 -0.538693D+03 -0.538687D+03
      2  -0.162277D+00  0.132444D+00  0.588909D-02  0.455779D-01  0.380914D-02
      3  -0.234489D+00 -0.793711D-01 -0.889399D-02 -0.476990D-01  0.126173D-01
      4   0.684438D+00  0.554834D-02  0.000000D+00 -0.532649D-02  0.469476D-02
      5   0.197561D-01 -0.138088D-01 -0.821871D-03 -0.733097D-02 -0.881290D-03
      6   0.284300D-01  0.821011D-02  0.807887D-03  0.809808D-02 -0.337809D-02
      7  -0.821053D-01 -0.508978D-03 -0.240503D-03  0.103725D-02 -0.172106D-02
      8  -0.176326D+00 -0.280387D-01 -0.104161D+00  0.545348D+00  0.640211D-01
      9   0.100459D+00 -0.562236D-01 -0.169722D+00  0.934777D+00 -0.883176D-01
     10   0.229726D-01 -0.389932D-01 -0.859332D-01  0.517758D+00 -0.375148D-01
     11  -0.264299D-01 -0.766016D-02  0.292396D-01  0.235290D+00 -0.423955D-01
     12  -0.293418D-01  0.525482D-02 -0.245369D-01 -0.204370D+00 -0.151940D-02
     13   0.421448D-01 -0.838240D-03 -0.516823D-02 -0.423390D-01  0.336760D-01
     14   0.183722D-02 -0.526814D-03  0.101443D-01  0.977080D-01 -0.946042D-03
     15   0.112744D-01 -0.102604D-02 -0.573460D-01 -0.439208D+00  0.219540D-01
     16   0.224624D-01 -0.416409D-03  0.368416D-01  0.276241D+00 -0.360598D-02
                 6             7             8             9            10 
      1  -0.538679D+03 -0.538675D+03 -0.538670D+03 -0.538667D+03 -0.538664D+03
      2  -0.313634D+01  0.112562D-02 -0.292211D-01 -0.153209D-01 -0.126282D-01
      3   0.189628D+01 -0.312059D-01 -0.125458D-01  0.685785D-03  0.985606D-01
      4  -0.154638D+00 -0.308925D-01  0.333147D-01 -0.452548D-02 -0.614052D-01
      5   0.559581D+00 -0.782757D-03  0.571899D-02  0.289149D-02  0.158854D-02
      6  -0.338205D+00  0.488404D-02  0.285894D-02  0.344352D-04 -0.204288D-01
      7   0.274721D-01  0.600834D-02 -0.631800D-02  0.134624D-02  0.141755D-01
      8  -0.114906D+00  0.228391D-02 -0.199275D-02  0.430067D-01  0.602466D-01
      9  -0.155645D+00  0.318622D-02 -0.277140D-02 -0.225829D-01 -0.430029D-01
     10   0.307734D+00  0.226268D-02  0.634652D-02  0.375832D-02 -0.140641D-01
     11   0.184366D+00  0.187905D+00  0.100559D+00 -0.452726D-01 -0.109637D+00
     12  -0.168382D+00  0.525654D-01  0.320948D-01 -0.128360D-01 -0.482355D-01
     13  -0.467091D-02 -0.114066D+00  0.313994D-01  0.383901D-01  0.873876D-01
     14   0.974347D-01 -0.136180D+00 -0.506185D-01  0.396821D-01  0.310579D-01
     15   0.106574D+00  0.374551D-01 -0.886680D-02 -0.145124D-01  0.769769D-02
     16  -0.651992D-01  0.366657D-01 -0.242639D-01  0.434321D-02  0.238816D-01
                11            12            13            14            15 
      1  -0.538662D+03 -0.538659D+03 -0.538654D+03 -0.538652D+03 -0.538640D+03
      2   0.366635D+00 -0.316683D-01 -0.188655D+00 -0.131954D+00 -0.108891D-01
      3  -0.215433D+00 -0.519238D-01 -0.298425D+00  0.384236D-01 -0.314092D-01
      4   0.114473D-02  0.134735D+00  0.813448D+00  0.790345D-01  0.947534D-01
      5  -0.714212D-01  0.706229D-02  0.394503D-01  0.272537D-01  0.247551D-02
      6   0.419375D-01  0.115628D-01  0.620488D-01 -0.776376D-02  0.744863D-02
      7  -0.100171D-03 -0.264783D-01 -0.170677D+00 -0.165958D-01 -0.209401D-01
      8   0.703039D-01 -0.924607D-02  0.395410D-02  0.595066D-01 -0.130545D+00
      9   0.108973D+00  0.131082D-01 -0.251218D-01  0.779090D-01  0.104008D+00
     10  -0.881619D-02  0.219400D-03  0.248914D-01 -0.152824D+00 -0.243360D-02
     11  -0.361504D-01  0.952735D-01 -0.404380D-01 -0.614189D-01 -0.128646D+00
     12   0.335110D-01  0.386041D-01 -0.507961D-01  0.424392D-01 -0.967111D-01
     13   0.987603D-02  0.154516D+00  0.171979D-01  0.175667D-02  0.102505D+00
     14  -0.187405D-01 -0.409478D-01  0.301159D-01 -0.202527D-01  0.202558D-01
     15   0.733451D-02 -0.330804D-01  0.183099D-01 -0.243332D-01  0.187340D-01
     16  -0.690075D-02 -0.401516D-01  0.319845D-01  0.112294D-01  0.644558D-01
                16            17            18            19            20 
      1  -0.538640D+03 -0.538638D+03 -0.538632D+03 -0.538629D+03 -0.538626D+03
      2  -0.124668D+00 -0.921790D-01  0.182898D-01  0.144417D+00  0.560422D-01
      3   0.722511D-01  0.699746D-01  0.312516D-01 -0.124048D+00 -0.422517D-01
      4   0.119417D-01 -0.136982D-01 -0.355935D-01  0.742524D-01  0.297770D-01
      5   0.290017D-01  0.202812D-01 -0.485275D-02 -0.330115D-01 -0.153726D-01
      6  -0.169581D-01 -0.154485D-01 -0.802321D-02  0.272870D-01  0.110309D-01
      7  -0.261592D-02  0.293909D-02  0.564630D-02 -0.179016D-01 -0.726909D-02
      8  -0.106907D+00 -0.445621D-01  0.188942D-01 -0.428603D+00 -0.556437D-01
      9  -0.149004D+00 -0.729043D-01  0.247221D-01 -0.705087D+00 -0.917709D-01
     10  -0.311577D-01 -0.436452D-01  0.110833D-01 -0.404505D+00 -0.654842D-01
     11  -0.208715D-01 -0.501041D-01  0.155173D-01 -0.102506D+00 -0.109615D+00
     12  -0.310464D-01 -0.401373D-01 -0.246219D-01  0.111766D+00  0.703417D-01
     13   0.234192D-01  0.139188D-01  0.473371D-01  0.133007D-01  0.159983D-01
     14   0.245093D-01  0.418045D-01 -0.295826D-01 -0.606667D-01 -0.265704D-01
     15   0.776851D-01 -0.145841D-01 -0.283492D-01  0.198623D+00  0.118610D+00
     16  -0.448510D-01 -0.176656D-02 -0.188109D-01 -0.125446D+00 -0.805488D-01
                21            22            23            24            25 
      1  -0.538625D+03 -0.538624D+03 -0.538621D+03 -0.538620D+03 -0.538618D+03
      2  -0.790524D-01 -0.256856D+00  0.384651D+00 -0.423491D+00 -0.104538D-01
      3   0.646997D-02 -0.298322D+00 -0.319577D+00  0.197253D+00  0.202665D-01
      4   0.802137D-01  0.731384D+00  0.175694D+00  0.721607D-01  0.133952D-02
      5   0.212656D-01  0.610709D-01 -0.923700D-01  0.102280D+00  0.192201D-02
      6  -0.341624D-02  0.716164D-01  0.770350D-01 -0.479738D-01 -0.454807D-02
      7  -0.190967D-01 -0.175002D+00 -0.425317D-01 -0.177984D-01 -0.444994D-03
      8  -0.946029D-01 -0.812317D-01 -0.668711D-01 -0.594629D-01 -0.472702D-02
      9  -0.131663D+00  0.150085D+00  0.372859D-01  0.707471D-01 -0.289220D-01
     10  -0.464521D-01  0.102172D+00 -0.507721D-01  0.726317D-01  0.387458D-02
     11  -0.117473D+00  0.114434D+00 -0.169959D-01  0.784756D-01 -0.132419D+00
     12   0.987087D-01 -0.226740D-01  0.136338D-01 -0.249338D-01 -0.484550D-01
     13   0.143296D-01 -0.904186D-01  0.121327D-02 -0.116729D-01  0.228219D-01
     14  -0.393125D-01  0.257970D-01 -0.130951D-01 -0.127650D-01  0.858651D-01
     15   0.232099D+00 -0.545547D-01  0.625772D-01 -0.481363D-01 -0.243612D-01
     16  -0.152174D+00 -0.149400D-02 -0.430410D-01  0.313877D-01 -0.755213D-03
                26            27            28            29            30 
      1  -0.538612D+03 -0.538610D+03 -0.538608D+03 -0.538605D+03 -0.538604D+03
      2  -0.214884D-01  0.246353D-01  0.325543D-01 -0.756128D-01  0.868367D-01
      3   0.322523D-01 -0.286904D-01  0.250117D-01 -0.207920D+00  0.118468D+00
      4   0.809330D-01  0.150281D-01  0.186309D-01 -0.175520D+00  0.103274D+00
      5   0.584923D-02 -0.642786D-02 -0.104139D-01  0.181148D-01 -0.208031D-01
      6  -0.669445D-02  0.714304D-02 -0.999524D-02  0.500765D-01 -0.282365D-01
      7  -0.192257D-01 -0.384513D-02 -0.659582D-02  0.434478D-01 -0.257559D-01
      8  -0.147154D-01 -0.405796D-01  0.986096D-01 -0.230818D-01  0.123393D-01
      9   0.114541D-01 -0.558331D-01 -0.628519D-01 -0.271283D-02 -0.197872D+00
     10   0.143706D-01  0.486762D-01  0.461774D-02 -0.612489D-01  0.348737D-01
     11   0.679335D-01  0.395079D-01  0.371964D+00  0.241170D+01 -0.145337D+01
     12   0.125205D-01 -0.127717D-01  0.157053D+00  0.884036D+00 -0.545388D+00
     13  -0.114538D-01  0.115800D-01 -0.686984D-01 -0.411402D+00  0.184679D+00
     14  -0.496945D-01 -0.852361D-02 -0.211159D+00 -0.154267D+01  0.969720D+00
     15   0.122059D-01  0.115997D+00  0.324798D-01  0.220852D+00 -0.104457D+00
     16  -0.818414D-02 -0.637248D-01 -0.439604D-02  0.969311D-01 -0.729155D-01
                31            32            33            34            35 
      1  -0.538603D+03 -0.538603D+03 -0.538602D+03 -0.538601D+03 -0.538597D+03
      2  -0.724233D-01  0.654349D-01 -0.226831D-01 -0.923674D-01  0.332036D-01
      3  -0.580368D-01 -0.864979D-01 -0.638578D-01  0.203605D-01  0.279413D-01
      4  -0.586756D-01 -0.140083D-02 -0.308960D-02 -0.488186D-02  0.354297D-01
      5   0.171668D-01 -0.168432D-01  0.792469D-02  0.256474D-01 -0.841970D-02
      6   0.159516D-01  0.215271D-01  0.159630D-01 -0.625962D-02 -0.730768D-02
      7   0.140358D-01  0.165851D-03 -0.100406D-02  0.947758D-03 -0.865587D-02
      8   0.203444D+00 -0.552807D+00  0.113973D+00  0.226270D+00  0.584025D-01
      9   0.703423D-01 -0.898254D+00 -0.205434D+00  0.386486D+00 -0.174905D-01
     10   0.419619D+00 -0.209699D+00 -0.369123D+00  0.288457D+00  0.865048D-01
     11   0.108966D+01  0.354272D+00  0.323341D+00  0.255069D+00 -0.471739D+00
     12   0.135475D+00  0.723983D-01  0.423733D+00  0.101817D+00 -0.226358D+00
     13  -0.200593D+00 -0.290850D-01 -0.154077D+00 -0.612164D-01  0.825584D-01
     14  -0.371058D+00 -0.175290D+00 -0.351322D+00 -0.155339D+00  0.362299D+00
     15   0.792693D-01  0.248803D+00 -0.691389D-01 -0.135340D-01 -0.515029D-01
     16  -0.622942D-01 -0.115537D+00 -0.487463D-01  0.182759D-01 -0.845337D-02
                36            37            38            39            40 
      1  -0.538597D+03 -0.538594D+03 -0.538594D+03 -0.538589D+03 -0.538588D+03
      2   0.531479D-01 -0.113520D-01 -0.224294D+00 -0.185721D+00  0.603698D+00
      3  -0.200956D-01  0.838100D-01  0.121535D+00  0.106122D+00 -0.356132D+00
      4   0.195998D-01  0.394868D-01 -0.896411D-02 -0.121696D-01  0.267088D-01
      5  -0.122094D-01 -0.200633D-02  0.589994D-01  0.526695D-01 -0.167530D+00
      6   0.452470D-02 -0.299187D-01 -0.298324D-01 -0.309069D-01  0.990057D-01
      7  -0.532257D-02 -0.156868D-01  0.375995D-02  0.296026D-02 -0.776782D-02
      8  -0.264128D-01 -0.748656D-01  0.326993D-01  0.595154D-01  0.542217D-01
      9  -0.108000D+00 -0.655991D-01  0.299245D-01  0.782272D-01  0.166393D+00
     10  -0.497645D+00 -0.453193D-01  0.231197D-01 -0.446113D-01 -0.407385D-01
     11  -0.470992D+00  0.821143D-01  0.244288D-02  0.697582D-01 -0.348447D-01
     12   0.283798D+00  0.241990D-01 -0.876739D-01  0.563674D-01  0.644717D-01
     13   0.280216D-01  0.220494D-01  0.749278D-03 -0.216131D-01  0.337613D-02
     14  -0.820688D-01 -0.117070D+00  0.929693D-01 -0.705701D-01 -0.596342D-01
     15   0.416097D-01  0.862296D-01  0.269847D-01 -0.511775D-01 -0.150885D+00
     16  -0.577753D-01 -0.777241D-01 -0.123536D-01  0.335847D-01  0.900173D-01
 Unable to Open any file for archive entry.
 1\1\GINC-C3CPU-A7-U9-1\SP\RPBEPBE TD-FC\CC-pVDZ\C14H10\SILE6618\20-Oct
 -2024\0\\#p PBEPBE/cc-pVDZ TD(NStates=40,Root=0)\\TD-DFT excited state
  calculation: PBE/cc-pVDZ\\0,1\C,0,10.70051,5.44882,23.71103\C,0,9.865
 35,6.36033,23.06568\C,0,11.92708,5.09157,23.15315\C,0,10.20494,6.81277
 ,21.73154\C,0,11.36552,6.33847,21.05453\C,0,12.28918,5.58033,21.83391\
 C,0,12.86133,4.31545,23.9032\C,0,14.13694,4.09733,23.44877\C,0,14.5303
 1,4.64821,22.20398\C,0,13.6257,5.33579,21.43452\C,0,8.71898,6.89515,23
 .72297\C,0,7.97054,7.8934,23.15017\C,0,8.32225,8.3755,21.86646\C,0,9.3
 7377,7.81691,21.18403\H,0,8.47903,6.52006,24.71974\H,0,7.118,8.32084,2
 3.67852\H,0,7.74314,9.17777,21.40694\H,0,9.62716,8.17517,20.18813\H,0,
 10.4301,5.07732,24.70245\H,0,13.95536,5.76717,20.4966\H,0,15.55371,4.5
 2044,21.84723\H,0,12.54422,3.93771,24.87737\H,0,14.8505,3.52914,24.046
 18\H,0,11.6372,6.71833,20.07691\\Version=ES64L-G16RevC.02\State=1-A\HF
 =-538.8613976\RMSD=2.784e-09\PG=C01 [X(C14H10)]\\@
 The archive entry for this job was punched.


 YOU ARE IN A MAZE OF TWISTY LITTLE PASSAGES.
 Job cpu time:       0 days  0 hours 20 minutes 46.4 seconds.
 Elapsed time:       0 days  0 hours 20 minutes 58.2 seconds.
 File lengths (MBytes):  RWF=    809 Int=      0 D2E=      0 Chk=     96 Scr=      1
 Normal termination of Gaussian 16 at Sun Oct 20 09:40:35 2024.
