<?xml version="1.0" encoding="ISO-8859-1"?>
<modeling>
 <generator>
  <i name="program" type="string">vasp </i>
  <i name="version" type="string">6.4.2  </i>
  <i name="subversion" type="string">20Jul23 (build Mar 19 2024 13:39:35) complex                          parallel </i>
  <i name="platform" type="string">LinuxIFC </i>
  <i name="date" type="string">2025 02 08 </i>
  <i name="time" type="string">17:34:47 </i>
 </generator>
 <incar>
  <i type="string" name="SYSTEM">Si_surface_6layer</i>
  <i type="string" name="PREC">Accurate</i>
  <i type="int" name="NELMIN">     5</i>
  <i type="int" name="IBRION">     0</i>
  <i name="EDIFF">      0.00010000</i>
  <i name="EDIFFG">     -0.00950000</i>
  <i type="int" name="NSW">   100</i>
  <i type="int" name="ISIF">     2</i>
  <i type="int" name="ISYM">     0</i>
  <i name="ENCUT">    540.00000000</i>
  <i type="int" name="NBANDS">   640</i>
  <i name="POTIM">      1.00000000</i>
  <i name="TEBEG">    300.00000000</i>
  <i name="SMASS">     -1.00000000</i>
  <i type="int" name="ISMEAR">     0</i>
  <i name="SIGMA">      0.01000000</i>
  <i type="int" name="NWRITE">     1</i>
  <i type="int" name="IDIPOL">     3</i>
  <i type="int" name="IVDW">    12</i>
  <i type="int" name="MDALGO">     2</i>
 </incar>
 <primitive_cell>
  <structure name="primitive_cell" >
   <crystal>
    <varray name="basis" >
     <v>      15.33298779       0.00000000       0.00000000 </v>
     <v>       7.66649389      13.27875694       0.00000000 </v>
     <v>       0.00000000       0.00000000      41.55799484 </v>
    </varray>
    <i name="volume">   8461.33316923 </i>
    <varray name="rec_basis" >
     <v>       0.06521886      -0.03765413       0.00000000 </v>
     <v>       0.00000000       0.07530825       0.00000000 </v>
     <v>       0.00000000       0.00000000       0.02406276 </v>
    </varray>
   </crystal>
   <varray name="positions" >
    <v>       0.48478775       0.52272914       0.57670599 </v>
    <v>       0.44092843       0.47157120       0.56148413 </v>
    <v>       0.53904432       0.55735425       0.55913414 </v>
    <v>       0.44959727       0.45514374       0.52658976 </v>
    <v>       0.50232281       0.49208031       0.50766887 </v>
    <v>       0.54189148       0.54648764       0.52534508 </v>
    <v>       0.58761703       0.60653097       0.57453782 </v>
    <v>       0.63028663       0.64943563       0.55611667 </v>
    <v>       0.62665894       0.64483832       0.52248014 </v>
    <v>       0.59268105       0.58787782       0.50771246 </v>
    <v>       0.39078002       0.42899190       0.58000241 </v>
    <v>       0.34933300       0.37688430       0.56661187 </v>
    <v>       0.36082243       0.35857917       0.53333264 </v>
    <v>       0.40751588       0.39670664       0.51429170 </v>
    <v>       0.38120343       0.44038007       0.60544906 </v>
    <v>       0.30728355       0.34812626       0.58039664 </v>
    <v>       0.33158090       0.31645511       0.52234804 </v>
    <v>       0.41699165       0.37771007       0.48876782 </v>
    <v>       0.48706928       0.52311425       0.60320397 </v>
    <v>       0.58876342       0.58152464       0.48222469 </v>
    <v>       0.65382050       0.68425138       0.50713687 </v>
    <v>       0.58781691       0.61417790       0.60125825 </v>
    <v>       0.66357693       0.69262631       0.56700875 </v>
    <v>       0.99904110       0.00302702       0.02059694 </v>
    <v>       0.49600352       0.00486735       0.02053811 </v>
    <v>       0.99920755       0.49781774       0.01852402 </v>
    <v>       0.50539041       0.49462164       0.02167679 </v>
    <v>       0.25300990       0.99314054       0.02128415 </v>
    <v>       0.75405338       0.99570313       0.02117451 </v>
    <v>       0.24864979       0.50455134       0.02044542 </v>
    <v>       0.75181472       0.50307526       0.02000289 </v>
    <v>       0.00182720       0.25509555       0.01983940 </v>
    <v>       0.49729418       0.24661917       0.01860740 </v>
    <v>       0.99469124       0.75183699       0.01949817 </v>
    <v>       0.50168930       0.74688536       0.02031946 </v>
    <v>       0.24869985       0.25171449       0.02039549 </v>
    <v>       0.74641326       0.25110829       0.02035596 </v>
    <v>       0.25546335       0.74706383       0.02140387 </v>
    <v>       0.74135364       0.75241597       0.01964821 </v>
    <v>       0.00475837       0.01032562       0.48655503 </v>
    <v>       0.50858469       0.99457647       0.48454590 </v>
    <v>       0.99926839       0.48954110       0.48506794 </v>
    <v>       0.25812819       0.99423361       0.48630306 </v>
    <v>       0.76986421       0.99739456       0.48484168 </v>
    <v>       0.23481637       0.51879600       0.48620269 </v>
    <v>       0.76758598       0.49154308       0.48294672 </v>
    <v>       0.00569508       0.25478454       0.48404073 </v>
    <v>       0.52380808       0.22255913       0.48318959 </v>
    <v>       0.98373606       0.74841542       0.48677513 </v>
    <v>       0.48464264       0.78042696       0.48316088 </v>
    <v>       0.26503715       0.24688571       0.48539066 </v>
    <v>       0.75370926       0.23925716       0.48316412 </v>
    <v>       0.24583213       0.75102228       0.48411518 </v>
    <v>       0.74887393       0.75471529       0.48559964 </v>
    <v>       0.00000000       0.00000000       0.05648431 </v>
    <v>       0.50000000       0.00000000       0.05648431 </v>
    <v>       0.00000000       0.50000000       0.05648431 </v>
    <v>       0.50000000       0.50000000       0.05648431 </v>
    <v>       0.25000000       0.00000000       0.05648431 </v>
    <v>       0.75000000       0.00000000       0.05648431 </v>
    <v>       0.25000000       0.50000000       0.05648431 </v>
    <v>       0.75000000       0.50000000       0.05648431 </v>
    <v>       0.00000000       0.25000000       0.05648431 </v>
    <v>       0.50000000       0.25000000       0.05648431 </v>
    <v>       0.00000000       0.75000000       0.05648431 </v>
    <v>       0.50000000       0.75000000       0.05648431 </v>
    <v>       0.25000000       0.25000000       0.05648431 </v>
    <v>       0.75000000       0.25000000       0.05648431 </v>
    <v>       0.25000000       0.75000000       0.05648431 </v>
    <v>       0.75000000       0.75000000       0.05648431 </v>
    <v>       0.83333331       0.83333331       0.07531242 </v>
    <v>       0.33333334       0.83333331       0.07531242 </v>
    <v>       0.83333331       0.33333334       0.07531242 </v>
    <v>       0.33333334       0.33333334       0.07531242 </v>
    <v>       0.08333334       0.83333331       0.07531242 </v>
    <v>       0.58333331       0.83333331       0.07531242 </v>
    <v>       0.08333334       0.33333334       0.07531242 </v>
    <v>       0.58333331       0.33333334       0.07531242 </v>
    <v>       0.83333331       0.08333334       0.07531242 </v>
    <v>       0.33333334       0.08333334       0.07531242 </v>
    <v>       0.83333331       0.58333331       0.07531242 </v>
    <v>       0.33333334       0.58333331       0.07531242 </v>
    <v>       0.08333334       0.08333334       0.07531242 </v>
    <v>       0.58333331       0.08333334       0.07531242 </v>
    <v>       0.08333334       0.58333331       0.07531242 </v>
    <v>       0.58333331       0.58333331       0.07531242 </v>
    <v>       0.83333331       0.83333331       0.13179672 </v>
    <v>       0.33333334       0.83333331       0.13179672 </v>
    <v>       0.83333331       0.33333334       0.13179672 </v>
    <v>       0.33333334       0.33333334       0.13179672 </v>
    <v>       0.08333334       0.83333331       0.13179672 </v>
    <v>       0.58333331       0.83333331       0.13179672 </v>
    <v>       0.08333334       0.33333334       0.13179672 </v>
    <v>       0.58333331       0.33333334       0.13179672 </v>
    <v>       0.83333331       0.08333334       0.13179672 </v>
    <v>       0.33333334       0.08333334       0.13179672 </v>
    <v>       0.83333331       0.58333331       0.13179672 </v>
    <v>       0.33333334       0.58333331       0.13179672 </v>
    <v>       0.08333334       0.08333334       0.13179672 </v>
    <v>       0.58333331       0.08333334       0.13179672 </v>
    <v>       0.08333334       0.58333331       0.13179672 </v>
    <v>       0.58333331       0.58333331       0.13179672 </v>
    <v>       0.66666669       0.66666669       0.15062483 </v>
    <v>       0.16666667       0.66666669       0.15062483 </v>
    <v>       0.66666669       0.16666667       0.15062483 </v>
    <v>       0.16666667       0.16666667       0.15062483 </v>
    <v>       0.91666669       0.66666669       0.15062483 </v>
    <v>       0.41666666       0.66666669       0.15062483 </v>
    <v>       0.91666669       0.16666667       0.15062483 </v>
    <v>       0.41666666       0.16666667       0.15062483 </v>
    <v>       0.66666669       0.91666669       0.15062483 </v>
    <v>       0.16666667       0.91666669       0.15062483 </v>
    <v>       0.66666669       0.41666666       0.15062483 </v>
    <v>       0.16666667       0.41666666       0.15062483 </v>
    <v>       0.91666669       0.91666669       0.15062483 </v>
    <v>       0.41666666       0.91666669       0.15062483 </v>
    <v>       0.91666669       0.41666666       0.15062483 </v>
    <v>       0.41666666       0.41666666       0.15062483 </v>
    <v>       0.66691256       0.66650248       0.20705401 </v>
    <v>       0.16691388       0.66649014       0.20705898 </v>
    <v>       0.66690344       0.16650572       0.20706598 </v>
    <v>       0.16684061       0.16660814       0.20708179 </v>
    <v>       0.91692531       0.66649854       0.20705918 </v>
    <v>       0.41692519       0.66647869       0.20706536 </v>
    <v>       0.91692513       0.16650243       0.20707472 </v>
    <v>       0.41696414       0.16651435       0.20706745 </v>
    <v>       0.66691798       0.91648233       0.20704251 </v>
    <v>       0.16694951       0.91644073       0.20704633 </v>
    <v>       0.66691595       0.41648963       0.20705459 </v>
    <v>       0.16692059       0.41647589       0.20705572 </v>
    <v>       0.91694874       0.91646326       0.20705239 </v>
    <v>       0.41701031       0.91640425       0.20704820 </v>
    <v>       0.91693836       0.41649175       0.20706076 </v>
    <v>       0.41692036       0.41647944       0.20706344 </v>
    <v>       0.50027961       0.49979386       0.22588077 </v>
    <v>       0.00028667       0.49982324       0.22588117 </v>
    <v>       0.50028664       0.99980050       0.22585523 </v>
    <v>       0.00032078       0.99976605       0.22586109 </v>
    <v>       0.75028151       0.49981755       0.22585415 </v>
    <v>       0.25025454       0.49979892       0.22586794 </v>
    <v>       0.75028825       0.99977207       0.22584361 </v>
    <v>       0.25032210       0.99981099       0.22577891 </v>
    <v>       0.50031888       0.74973106       0.22591362 </v>
    <v>       0.00028389       0.74979836       0.22589213 </v>
    <v>       0.50029421       0.24984773       0.22593303 </v>
    <v>       0.00016690       0.24989246       0.22594904 </v>
    <v>       0.75026935       0.74982309       0.22586657 </v>
    <v>       0.25028658       0.74977243       0.22589330 </v>
    <v>       0.75025457       0.24982803       0.22588789 </v>
    <v>       0.25034884       0.24982284       0.22589789 </v>
    <v>       0.50049311       0.49963021       0.28230625 </v>
    <v>       0.00050731       0.49968964       0.28230851 </v>
    <v>       0.50051337       0.99962586       0.28226964 </v>
    <v>       0.00059072       0.99956340       0.28227770 </v>
    <v>       0.75046229       0.49970725       0.28226706 </v>
    <v>       0.25044429       0.49965557       0.28228562 </v>
    <v>       0.75051129       0.99957675       0.28225109 </v>
    <v>       0.25060219       0.99960679       0.28215270 </v>
    <v>       0.50056702       0.74950278       0.28235546 </v>
    <v>       0.00050130       0.74963838       0.28232343 </v>
    <v>       0.50053847       0.24974354       0.28238247 </v>
    <v>       0.00022542       0.24985044       0.28240289 </v>
    <v>       0.75046211       0.74969256       0.28228702 </v>
    <v>       0.25051790       0.74957991       0.28232459 </v>
    <v>       0.75041085       0.24970731       0.28231667 </v>
    <v>       0.25066370       0.24970363       0.28232852 </v>
    <v>       0.33391163       0.33313787       0.30122887 </v>
    <v>       0.83340478       0.33325410       0.30123816 </v>
    <v>       0.33380580       0.83306384       0.30105916 </v>
    <v>       0.83384037       0.83295310       0.30113371 </v>
    <v>       0.58387220       0.33310598       0.30124070 </v>
    <v>       0.08398666       0.33295631       0.30108731 </v>
    <v>       0.58382905       0.83298177       0.30112000 </v>
    <v>       0.08388577       0.83291119       0.30115693 </v>
    <v>       0.33384538       0.58284026       0.30112975 </v>
    <v>       0.83381855       0.58302647       0.30109687 </v>
    <v>       0.33384517       0.08289958       0.30104594 </v>
    <v>       0.83388197       0.08288339       0.30102269 </v>
    <v>       0.58398402       0.58273447       0.30118588 </v>
    <v>       0.08386202       0.58297580       0.30116989 </v>
    <v>       0.58390039       0.08290785       0.30108313 </v>
    <v>       0.08406826       0.08289581       0.30098030 </v>
    <v>       0.33232237       0.33128396       0.35734476 </v>
    <v>       0.83685584       0.32769948       0.35781886 </v>
    <v>       0.33716124       0.82055932       0.35750583 </v>
    <v>       0.83381919       0.82927560       0.35721629 </v>
    <v>       0.58223745       0.33838216       0.35776305 </v>
    <v>       0.08896981       0.32736151       0.35730709 </v>
    <v>       0.58432223       0.83972677       0.35688817 </v>
    <v>       0.08205765       0.83130495       0.35723209 </v>
    <v>       0.33226992       0.57875656       0.35791840 </v>
    <v>       0.82841210       0.58504022       0.35752078 </v>
    <v>       0.33153881       0.08678352       0.35601423 </v>
    <v>       0.83245420       0.07869995       0.35483873 </v>
    <v>       0.57636999       0.58539414       0.35765191 </v>
    <v>       0.07726980       0.58345440       0.35574367 </v>
    <v>       0.58024736       0.08639284       0.35649929 </v>
    <v>       0.08699644       0.08026015       0.35763033 </v>
    <v>       0.16497809       0.16861414       0.37538213 </v>
    <v>       0.66753139       0.16575647       0.37243864 </v>
    <v>       0.15935181       0.66779232       0.37396192 </v>
    <v>       0.66135509       0.66659827       0.37618168 </v>
    <v>       0.41772590       0.16194232       0.37646532 </v>
    <v>       0.92233100       0.15373093       0.37462965 </v>
    <v>       0.41653281       0.65663305       0.37941162 </v>
    <v>       0.91175349       0.66715067       0.37648484 </v>
    <v>       0.16819785       0.41826869       0.37641194 </v>
    <v>       0.66459674       0.41666547       0.37729050 </v>
    <v>       0.17070490       0.91531320       0.37481943 </v>
    <v>       0.66837878       0.91921052       0.37642456 </v>
    <v>       0.41836982       0.41467239       0.37868903 </v>
    <v>       0.91755962       0.41460084       0.37180533 </v>
    <v>       0.40934902       0.91872974       0.37090196 </v>
    <v>       0.91791074       0.91330929       0.37485746 </v>
    <v>       0.17162893       0.16413394       0.43239312 </v>
    <v>       0.67577132       0.16502540       0.42792216 </v>
    <v>       0.16143117       0.67066412       0.43033071 </v>
    <v>       0.66370107       0.66830200       0.43448474 </v>
    <v>       0.41992558       0.17032034       0.43190482 </v>
    <v>       0.92498936       0.16508624       0.43008483 </v>
    <v>       0.41804467       0.65348995       0.43593647 </v>
    <v>       0.91289808       0.67170244       0.43237550 </v>
    <v>       0.16092436       0.42311055       0.43201544 </v>
    <v>       0.66589380       0.41826967       0.43387693 </v>
    <v>       0.16811578       0.92074785       0.43038994 </v>
    <v>       0.66601018       0.92177487       0.43243028 </v>
    <v>       0.42603489       0.41417662       0.43458852 </v>
    <v>       0.92470945       0.41266358       0.42712659 </v>
    <v>       0.41439942       0.92410865       0.42703578 </v>
    <v>       0.91744263       0.91745551       0.43072395 </v>
    <v>       0.00255587       0.99830223       0.44980505 </v>
    <v>       0.49791752       0.00656101       0.44921011 </v>
    <v>       0.99288128       0.50402090       0.44863873 </v>
    <v>       0.50564508       0.48941630       0.46085579 </v>
    <v>       0.25662855       0.99790283       0.44971336 </v>
    <v>       0.75033630       0.00122432       0.44871892 </v>
    <v>       0.24774177       0.50439345       0.45003868 </v>
    <v>       0.76078027       0.49441322       0.44759708 </v>
    <v>       0.00652252       0.25144447       0.44883379 </v>
    <v>       0.51260410       0.24349115       0.44740420 </v>
    <v>       0.99621390       0.75331825       0.45038877 </v>
    <v>       0.49330194       0.75544396       0.44771528 </v>
    <v>       0.25220396       0.25242543       0.44913775 </v>
    <v>       0.75764730       0.24938276       0.44768435 </v>
    <v>       0.24726919       0.75201590       0.44873931 </v>
    <v>       0.74831849       0.75387055       0.44976622 </v>
   </varray>
  </structure>
  <varray name="primitive_index" >
   <v type="int" >        1 </v>
   <v type="int" >        2 </v>
   <v type="int" >        3 </v>
   <v type="int" >        4 </v>
   <v type="int" >        5 </v>
   <v type="int" >        6 </v>
   <v type="int" >        7 </v>
   <v type="int" >        8 </v>
   <v type="int" >        9 </v>
   <v type="int" >       10 </v>
   <v type="int" >       11 </v>
   <v type="int" >       12 </v>
   <v type="int" >       13 </v>
   <v type="int" >       14 </v>
   <v type="int" >       15 </v>
   <v type="int" >       16 </v>
   <v type="int" >       17 </v>
   <v type="int" >       18 </v>
   <v type="int" >       19 </v>
   <v type="int" >       20 </v>
   <v type="int" >       21 </v>
   <v type="int" >       22 </v>
   <v type="int" >       23 </v>
   <v type="int" >       24 </v>
   <v type="int" >       25 </v>
   <v type="int" >       26 </v>
   <v type="int" >       27 </v>
   <v type="int" >       28 </v>
   <v type="int" >       29 </v>
   <v type="int" >       30 </v>
   <v type="int" >       31 </v>
   <v type="int" >       32 </v>
   <v type="int" >       33 </v>
   <v type="int" >       34 </v>
   <v type="int" >       35 </v>
   <v type="int" >       36 </v>
   <v type="int" >       37 </v>
   <v type="int" >       38 </v>
   <v type="int" >       39 </v>
   <v type="int" >       40 </v>
   <v type="int" >       41 </v>
   <v type="int" >       42 </v>
   <v type="int" >       43 </v>
   <v type="int" >       44 </v>
   <v type="int" >       45 </v>
   <v type="int" >       46 </v>
   <v type="int" >       47 </v>
   <v type="int" >       48 </v>
   <v type="int" >       49 </v>
   <v type="int" >       50 </v>
   <v type="int" >       51 </v>
   <v type="int" >       52 </v>
   <v type="int" >       53 </v>
   <v type="int" >       54 </v>
   <v type="int" >       55 </v>
   <v type="int" >       56 </v>
   <v type="int" >       57 </v>
   <v type="int" >       58 </v>
   <v type="int" >       59 </v>
   <v type="int" >       60 </v>
   <v type="int" >       61 </v>
   <v type="int" >       62 </v>
   <v type="int" >       63 </v>
   <v type="int" >       64 </v>
   <v type="int" >       65 </v>
   <v type="int" >       66 </v>
   <v type="int" >       67 </v>
   <v type="int" >       68 </v>
   <v type="int" >       69 </v>
   <v type="int" >       70 </v>
   <v type="int" >       71 </v>
   <v type="int" >       72 </v>
   <v type="int" >       73 </v>
   <v type="int" >       74 </v>
   <v type="int" >       75 </v>
   <v type="int" >       76 </v>
   <v type="int" >       77 </v>
   <v type="int" >       78 </v>
   <v type="int" >       79 </v>
   <v type="int" >       80 </v>
   <v type="int" >       81 </v>
   <v type="int" >       82 </v>
   <v type="int" >       83 </v>
   <v type="int" >       84 </v>
   <v type="int" >       85 </v>
   <v type="int" >       86 </v>
   <v type="int" >       87 </v>
   <v type="int" >       88 </v>
   <v type="int" >       89 </v>
   <v type="int" >       90 </v>
   <v type="int" >       91 </v>
   <v type="int" >       92 </v>
   <v type="int" >       93 </v>
   <v type="int" >       94 </v>
   <v type="int" >       95 </v>
   <v type="int" >       96 </v>
   <v type="int" >       97 </v>
   <v type="int" >       98 </v>
   <v type="int" >       99 </v>
   <v type="int" >      100 </v>
   <v type="int" >      101 </v>
   <v type="int" >      102 </v>
   <v type="int" >      103 </v>
   <v type="int" >      104 </v>
   <v type="int" >      105 </v>
   <v type="int" >      106 </v>
   <v type="int" >      107 </v>
   <v type="int" >      108 </v>
   <v type="int" >      109 </v>
   <v type="int" >      110 </v>
   <v type="int" >      111 </v>
   <v type="int" >      112 </v>
   <v type="int" >      113 </v>
   <v type="int" >      114 </v>
   <v type="int" >      115 </v>
   <v type="int" >      116 </v>
   <v type="int" >      117 </v>
   <v type="int" >      118 </v>
   <v type="int" >      119 </v>
   <v type="int" >      120 </v>
   <v type="int" >      121 </v>
   <v type="int" >      122 </v>
   <v type="int" >      123 </v>
   <v type="int" >      124 </v>
   <v type="int" >      125 </v>
   <v type="int" >      126 </v>
   <v type="int" >      127 </v>
   <v type="int" >      128 </v>
   <v type="int" >      129 </v>
   <v type="int" >      130 </v>
   <v type="int" >      131 </v>
   <v type="int" >      132 </v>
   <v type="int" >      133 </v>
   <v type="int" >      134 </v>
   <v type="int" >      135 </v>
   <v type="int" >      136 </v>
   <v type="int" >      137 </v>
   <v type="int" >      138 </v>
   <v type="int" >      139 </v>
   <v type="int" >      140 </v>
   <v type="int" >      141 </v>
   <v type="int" >      142 </v>
   <v type="int" >      143 </v>
   <v type="int" >      144 </v>
   <v type="int" >      145 </v>
   <v type="int" >      146 </v>
   <v type="int" >      147 </v>
   <v type="int" >      148 </v>
   <v type="int" >      149 </v>
   <v type="int" >      150 </v>
   <v type="int" >      151 </v>
   <v type="int" >      152 </v>
   <v type="int" >      153 </v>
   <v type="int" >      154 </v>
   <v type="int" >      155 </v>
   <v type="int" >      156 </v>
   <v type="int" >      157 </v>
   <v type="int" >      158 </v>
   <v type="int" >      159 </v>
   <v type="int" >      160 </v>
   <v type="int" >      161 </v>
   <v type="int" >      162 </v>
   <v type="int" >      163 </v>
   <v type="int" >      164 </v>
   <v type="int" >      165 </v>
   <v type="int" >      166 </v>
   <v type="int" >      167 </v>
   <v type="int" >      168 </v>
   <v type="int" >      169 </v>
   <v type="int" >      170 </v>
   <v type="int" >      171 </v>
   <v type="int" >      172 </v>
   <v type="int" >      173 </v>
   <v type="int" >      174 </v>
   <v type="int" >      175 </v>
   <v type="int" >      176 </v>
   <v type="int" >      177 </v>
   <v type="int" >      178 </v>
   <v type="int" >      179 </v>
   <v type="int" >      180 </v>
   <v type="int" >      181 </v>
   <v type="int" >      182 </v>
   <v type="int" >      183 </v>
   <v type="int" >      184 </v>
   <v type="int" >      185 </v>
   <v type="int" >      186 </v>
   <v type="int" >      187 </v>
   <v type="int" >      188 </v>
   <v type="int" >      189 </v>
   <v type="int" >      190 </v>
   <v type="int" >      191 </v>
   <v type="int" >      192 </v>
   <v type="int" >      193 </v>
   <v type="int" >      194 </v>
   <v type="int" >      195 </v>
   <v type="int" >      196 </v>
   <v type="int" >      197 </v>
   <v type="int" >      198 </v>
   <v type="int" >      199 </v>
   <v type="int" >      200 </v>
   <v type="int" >      201 </v>
   <v type="int" >      202 </v>
   <v type="int" >      203 </v>
   <v type="int" >      204 </v>
   <v type="int" >      205 </v>
   <v type="int" >      206 </v>
   <v type="int" >      207 </v>
   <v type="int" >      208 </v>
   <v type="int" >      209 </v>
   <v type="int" >      210 </v>
   <v type="int" >      211 </v>
   <v type="int" >      212 </v>
   <v type="int" >      213 </v>
   <v type="int" >      214 </v>
   <v type="int" >      215 </v>
   <v type="int" >      216 </v>
   <v type="int" >      217 </v>
   <v type="int" >      218 </v>
   <v type="int" >      219 </v>
   <v type="int" >      220 </v>
   <v type="int" >      221 </v>
   <v type="int" >      222 </v>
   <v type="int" >      223 </v>
   <v type="int" >      224 </v>
   <v type="int" >      225 </v>
   <v type="int" >      226 </v>
   <v type="int" >      227 </v>
   <v type="int" >      228 </v>
   <v type="int" >      229 </v>
   <v type="int" >      230 </v>
   <v type="int" >      231 </v>
   <v type="int" >      232 </v>
   <v type="int" >      233 </v>
   <v type="int" >      234 </v>
   <v type="int" >      235 </v>
   <v type="int" >      236 </v>
   <v type="int" >      237 </v>
   <v type="int" >      238 </v>
   <v type="int" >      239 </v>
   <v type="int" >      240 </v>
   <v type="int" >      241 </v>
   <v type="int" >      242 </v>
   <v type="int" >      243 </v>
   <v type="int" >      244 </v>
   <v type="int" >      245 </v>
   <v type="int" >      246 </v>
  </varray>
 </primitive_cell>
 <kpoints>
  <generation param="Gamma">
   <v type="int" name="divisions">       3        3        1 </v>
   <v name="usershift">      0.00000000       0.00000000       0.00000000 </v>
   <v name="genvec1">      0.33333333       0.00000000       0.00000000 </v>
   <v name="genvec2">      0.00000000       0.33333333       0.00000000 </v>
   <v name="genvec3">      0.00000000       0.00000000       1.00000000 </v>
   <v name="shift">      0.00000000       0.00000000       0.00000000 </v>
  </generation>
  <varray name="kpointlist" >
   <v>       0.00000000       0.00000000       0.00000000 </v>
   <v>       0.33333333       0.00000000       0.00000000 </v>
   <v>       0.33333333       0.33333333       0.00000000 </v>
   <v>       0.00000000       0.33333333       0.00000000 </v>
   <v>      -0.33333333       0.33333333       0.00000000 </v>
  </varray>
  <varray name="weights" >
   <v>       0.11111111 </v>
   <v>       0.22222222 </v>
   <v>       0.22222222 </v>
   <v>       0.22222222 </v>
   <v>       0.22222222 </v>
  </varray>
 </kpoints>
 <parameters>
  <separator name="general" >
   <i type="string" name="SYSTEM">Si_surface_6layer</i>
   <i type="logical" name="LCOMPAT"> F  </i>
  </separator>
  <separator name="electronic" >
   <i type="string" name="PREC">accura</i>
   <i name="ENMAX">    540.00000000</i>
   <i name="ENAUG">    644.87300000</i>
   <i name="EDIFF">      0.00010000</i>
   <i type="int" name="IALGO">    38</i>
   <i type="int" name="IWAVPR">    12</i>
   <i type="int" name="NBANDS">   640</i>
   <i type="int" name="NBANDSLOW">    -1</i>
   <i type="int" name="NBANDSHIGH">    -1</i>
   <i name="NELECT">    864.00000000</i>
   <i type="int" name="TURBO">     0</i>
   <i type="int" name="IRESTART">     0</i>
   <i type="int" name="NREBOOT">     0</i>
   <i type="int" name="NMIN">     0</i>
   <i name="EREF">      0.00000000</i>
   <separator name="electronic smearing" >
    <i type="int" name="ISMEAR">     0</i>
    <i name="SIGMA">      0.01000000</i>
    <i name="KSPACING">      0.50000000</i>
    <i type="logical" name="KGAMMA"> T  </i>
    <i type="logical" name="KBLOWUP"> T  </i>
   </separator>
   <separator name="electronic projectors" >
    <i type="logical" name="LREAL"> F  </i>
    <v name="ROPT">      0.00000000      0.00000000      0.00000000</v>
    <i type="int" name="LMAXPAW">  -100</i>
    <i type="int" name="LMAXMIX">     2</i>
    <i type="logical" name="NLSPLINE"> F  </i>
   </separator>
   <separator name="electronic startup" >
    <i type="int" name="ISTART">     1</i>
    <i type="int" name="ICHARG">     0</i>
    <i type="int" name="INIWAV">     1</i>
   </separator>
   <separator name="electronic spin" >
    <i type="int" name="ISPIN">     1</i>
    <i type="logical" name="LNONCOLLINEAR"> F  </i>
    <v name="MAGMOM">      1.00000000      1.00000000      1.00000000      1.00000000      1.00000000      1.00000000      1.00000000      1.00000000      1.00000000      1.00000000      1.00000000      1.00000000      1.00000000      1.00000000      1.00000000      1.00000000      1.00000000      1.00000000      1.00000000      1.00000000
      1.00000000      1.00000000      1.00000000      1.00000000      1.00000000      1.00000000      1.00000000      1.00000000      1.00000000      1.00000000      1.00000000      1.00000000      1.00000000      1.00000000      1.00000000      1.00000000      1.00000000      1.00000000      1.00000000      1.00000000
      1.00000000      1.00000000      1.00000000      1.00000000      1.00000000      1.00000000      1.00000000      1.00000000      1.00000000      1.00000000      1.00000000      1.00000000      1.00000000      1.00000000      1.00000000      1.00000000      1.00000000      1.00000000      1.00000000      1.00000000
      1.00000000      1.00000000      1.00000000      1.00000000      1.00000000      1.00000000      1.00000000      1.00000000      1.00000000      1.00000000      1.00000000      1.00000000      1.00000000      1.00000000      1.00000000      1.00000000      1.00000000      1.00000000      1.00000000      1.00000000
      1.00000000      1.00000000      1.00000000      1.00000000      1.00000000      1.00000000      1.00000000      1.00000000      1.00000000      1.00000000      1.00000000      1.00000000      1.00000000      1.00000000      1.00000000      1.00000000      1.00000000      1.00000000      1.00000000      1.00000000
      1.00000000      1.00000000      1.00000000      1.00000000      1.00000000      1.00000000      1.00000000      1.00000000      1.00000000      1.00000000      1.00000000      1.00000000      1.00000000      1.00000000      1.00000000      1.00000000      1.00000000      1.00000000      1.00000000      1.00000000
      1.00000000      1.00000000      1.00000000      1.00000000      1.00000000      1.00000000      1.00000000      1.00000000      1.00000000      1.00000000      1.00000000      1.00000000      1.00000000      1.00000000      1.00000000      1.00000000      1.00000000      1.00000000      1.00000000      1.00000000
      1.00000000      1.00000000      1.00000000      1.00000000      1.00000000      1.00000000      1.00000000      1.00000000      1.00000000      1.00000000      1.00000000      1.00000000      1.00000000      1.00000000      1.00000000      1.00000000      1.00000000      1.00000000      1.00000000      1.00000000
      1.00000000      1.00000000      1.00000000      1.00000000      1.00000000      1.00000000      1.00000000      1.00000000      1.00000000      1.00000000      1.00000000      1.00000000      1.00000000      1.00000000      1.00000000      1.00000000      1.00000000      1.00000000      1.00000000      1.00000000
      1.00000000      1.00000000      1.00000000      1.00000000      1.00000000      1.00000000      1.00000000      1.00000000      1.00000000      1.00000000      1.00000000      1.00000000      1.00000000      1.00000000      1.00000000      1.00000000      1.00000000      1.00000000      1.00000000      1.00000000
      1.00000000      1.00000000      1.00000000      1.00000000      1.00000000      1.00000000      1.00000000      1.00000000      1.00000000      1.00000000      1.00000000      1.00000000      1.00000000      1.00000000      1.00000000      1.00000000      1.00000000      1.00000000      1.00000000      1.00000000
      1.00000000      1.00000000      1.00000000      1.00000000      1.00000000      1.00000000      1.00000000      1.00000000      1.00000000      1.00000000      1.00000000      1.00000000      1.00000000      1.00000000      1.00000000      1.00000000      1.00000000      1.00000000      1.00000000      1.00000000
      1.00000000      1.00000000      1.00000000      1.00000000      1.00000000      1.00000000</v>
    <i name="NUPDOWN">     -1.00000000</i>
    <i type="logical" name="LSORBIT"> F  </i>
    <v name="SAXIS">      0.00000000      0.00000000      1.00000000</v>
    <i type="logical" name="LSPIRAL"> F  </i>
    <v name="QSPIRAL">      0.00000000      0.00000000      0.00000000</v>
    <i type="logical" name="LZEROZ"> F  </i>
   </separator>
   <separator name="electronic exchange-correlation" >
    <i type="logical" name="LASPH"> F  </i>
    <i type="logical" name="LMETAGGA"> F  </i>
   </separator>
   <separator name="electronic convergence" >
    <i type="int" name="NELM">    60</i>
    <i type="int" name="NELMDL">     0</i>
    <i type="int" name="NELMIN">     5</i>
    <i name="ENINI">    540.00000000</i>
    <separator name="electronic convergence detail" >
     <i type="logical" name="LDIAG"> T  </i>
     <i type="logical" name="LSUBROT"> F  </i>
     <i name="WEIMIN">      0.00100000</i>
     <i name="EBREAK">      0.00000004</i>
     <i name="DEPER">      0.30000000</i>
     <i type="int" name="NRMM">     4</i>
     <i name="TIME">      0.40000000</i>
    </separator>
   </separator>
   <separator name="electronic mixer" >
    <i name="AMIX">      0.40000000</i>
    <i name="BMIX">      1.00000000</i>
    <i name="AMIN">      0.10000000</i>
    <i name="AMIX_MAG">      1.60000000</i>
    <i name="BMIX_MAG">      1.00000000</i>
    <separator name="electronic mixer details" >
     <i type="int" name="IMIX">     4</i>
     <i type="logical" name="MIXFIRST"> F  </i>
     <i type="int" name="MAXMIX">   -45</i>
     <i name="WC">    100.00000000</i>
     <i type="int" name="INIMIX">     1</i>
     <i type="int" name="MIXPRE">     1</i>
     <i type="int" name="MREMOVE">     5</i>
    </separator>
   </separator>
   <separator name="electronic dipolcorrection" >
    <i type="logical" name="LDIPOL"> F  </i>
    <i type="logical" name="LMONO"> F  </i>
    <i type="int" name="IDIPOL">     3</i>
    <i name="EPSILON">      1.00000000</i>
    <v name="DIPOL">   -100.00000000   -100.00000000   -100.00000000</v>
    <i name="EFIELD">      0.00000000</i>
   </separator>
  </separator>
  <separator name="grids" >
   <i type="int" name="NGX">   120</i>
   <i type="int" name="NGY">   120</i>
   <i type="int" name="NGZ">   320</i>
   <i type="int" name="NGXF">   240</i>
   <i type="int" name="NGYF">   240</i>
   <i type="int" name="NGZF">   640</i>
   <i type="logical" name="ADDGRID"> F  </i>
  </separator>
  <separator name="ionic" >
   <i type="int" name="NSW">   100</i>
   <i type="int" name="IBRION">     0</i>
   <i type="int" name="MDALGO">     2</i>
   <i type="int" name="ISIF">     2</i>
   <i name="PSTRESS">      0.00000000</i>
   <i name="EDIFFG">     -0.00950000</i>
   <i type="int" name="NFREE">     0</i>
   <i name="POTIM">      1.00000000</i>
   <i name="SMASS">     -1.00000000</i>
   <i name="SCALEE">      1.00000000</i>
  </separator>
  <separator name="ionic md" >
   <i name="TEBEG">    300.00000000</i>
   <i name="TEEND">    300.00000000</i>
   <i type="int" name="NBLOCK">     1</i>
   <i type="int" name="KBLOCK">   100</i>
   <i type="int" name="NPACO">   256</i>
   <i name="APACO">     10.00000000</i>
  </separator>
  <separator name="symmetry" >
   <i type="int" name="ISYM">     0</i>
   <i name="SYMPREC">      0.00001000</i>
  </separator>
  <separator name="dos" >
   <i type="int" name="LORBIT">     0</i>
   <v name="RWIGS">     -1.00000000     -1.00000000     -1.00000000</v>
   <i type="int" name="NEDOS">   301</i>
   <i name="EMIN">     10.00000000</i>
   <i name="EMAX">    -10.00000000</i>
   <i name="EFERMI">      0.00000000</i>
  </separator>
  <separator name="writing" >
   <i type="int" name="NWRITE">     1</i>
   <i type="logical" name="LWAVE"> T  </i>
   <i type="logical" name="LDOWNSAMPLE"> F  </i>
   <i type="logical" name="LCHARG"> T  </i>
   <i type="logical" name="LPARD"> F  </i>
   <i type="logical" name="LVTOT"> F  </i>
   <i type="logical" name="LVHAR"> F  </i>
   <i type="logical" name="LELF"> F  </i>
   <i type="logical" name="LOPTICS"> F  </i>
   <v name="STM">      0.00000000      0.00000000      0.00000000      0.00000000      0.00000000      0.00000000      0.00000000</v>
  </separator>
  <separator name="performance" >
   <i type="int" name="NPAR">     8</i>
   <i type="int" name="NSIM">     4</i>
   <i type="int" name="NBLK">    -1</i>
   <i type="logical" name="LPLANE"> T  </i>
   <i type="logical" name="LSCALAPACK"> T  </i>
   <i type="logical" name="LSCAAWARE"> F  </i>
   <i type="logical" name="LSCALU"> F  </i>
   <i type="logical" name="LASYNC"> F  </i>
   <i type="logical" name="LORBITALREAL"> F  </i>
  </separator>
  <separator name="miscellaneous" >
   <i type="int" name="IDIOT">     3</i>
   <i type="int" name="PHON_NSTRUCT">    -1</i>
   <i type="logical" name="LMUSIC"> F  </i>
   <v name="POMASS">     12.01100000      1.00000000     28.08500000</v>
   <v name="DARWINR">      0.00000000      0.00000000      0.00000000</v>
   <v name="DARWINV">      1.00000000      1.00000000      1.00000000</v>
   <i type="logical" name="LCORR"> T  </i>
  </separator>
  <i type="logical" name="GGA_COMPAT"> T  </i>
  <i type="logical" name="LBERRY"> F  </i>
  <i type="int" name="ICORELEVEL">     0</i>
  <i type="logical" name="LDAU"> F  </i>
  <i type="int" name="I_CONSTRAINED_M">     0</i>
  <separator name="electronic exchange-correlation" >
   <i type="string" name="GGA">--</i>
   <i type="int" name="VOSKOWN">     0</i>
   <i type="logical" name="LHFCALC"> F  </i>
   <i type="string" name="PRECFOCK"></i>
   <i type="logical" name="LSYMGRAD"> F  </i>
   <i type="logical" name="LHFONE"> F  </i>
   <i type="logical" name="LRHFCALC"> F  </i>
   <i type="logical" name="LTHOMAS"> F  </i>
   <i type="logical" name="LMODELHF"> F  </i>
   <i type="logical" name="LFOCKACE"> F  </i>
   <i name="ENCUT4O">     -1.00000000</i>
   <i type="int" name="EXXOEP">     0</i>
   <i type="int" name="FOURORBIT">     0</i>
   <i name="AEXX">      0.00000000</i>
   <i name="HFALPHA">      0.00000000</i>
   <i name="MCALPHA">      0.00000000</i>
   <i name="ALDAX">      1.00000000</i>
   <i name="AGGAX">      1.00000000</i>
   <i name="ALDAC">      1.00000000</i>
   <i name="AGGAC">      1.00000000</i>
   <i type="int" name="NKREDX">     1</i>
   <i type="int" name="NKREDY">     1</i>
   <i type="int" name="NKREDZ">     1</i>
   <i type="logical" name="SHIFTRED"> F  </i>
   <i type="logical" name="ODDONLY"> F  </i>
   <i type="logical" name="EVENONLY"> F  </i>
   <i type="int" name="LMAXFOCK">     0</i>
   <i type="int" name="NMAXFOCKAE">     0</i>
   <i type="logical" name="LFOCKAEDFT"> F  </i>
   <i name="HFSCREEN">      0.00000000</i>
   <i name="HFSCREENC">      0.00000000</i>
   <i type="int" name="NBANDSGWLOW">     0</i>
  </separator>
  <separator name="vdW DFT" >
   <i type="logical" name="LUSE_VDW"> F  </i>
   <i type="int" name="IVDW_NL">     1</i>
   <i type="logical" name="LSPIN_VDW"> F  </i>
   <i name="Zab_VDW">     -0.84910000</i>
   <i name="PARAM1">      0.12340000</i>
   <i name="PARAM2">      1.00000000</i>
   <i name="PARAM3">      0.00000000</i>
  </separator>
  <separator name="model GW" >
   <i type="int" name="MODEL_GW">     0</i>
   <i name="MODEL_EPS0">     20.63739797</i>
   <i name="MODEL_ALPHA">      1.00000000</i>
  </separator>
  <separator name="linear response parameters" >
   <i type="logical" name="LEPSILON"> F  </i>
   <i type="logical" name="LRPA"> F  </i>
   <i type="logical" name="LNABLA"> F  </i>
   <i type="logical" name="LVEL"> F  </i>
   <i name="CSHIFT">      0.10000000</i>
   <i name="OMEGAMAX">     -1.00000000</i>
   <i name="DEG_THRESHOLD">      0.00200000</i>
   <i name="RTIME">     -0.10000000</i>
   <i name="WPLASMAI">      0.00000000</i>
   <v name="DFIELD">      0.00000000      0.00000000      0.00000000</v>
   <v name="WPLASMA">      0.00000000      0.00000000      0.00000000      0.00000000      0.00000000      0.00000000      0.00000000      0.00000000      0.00000000</v>
  </separator>
  <separator name="orbital magnetization" >
   <i type="logical" name="NUCIND"> F  </i>
   <v name="MAGPOS">      0.00000000      0.00000000      0.00000000</v>
   <i type="logical" name="LNICSALL"> T  </i>
   <i type="logical" name="ORBITALMAG"> F  </i>
   <i type="logical" name="LMAGBLOCH"> F  </i>
   <i type="logical" name="LCHIMAG"> F  </i>
   <i type="logical" name="LGAUGE"> T  </i>
   <i type="int" name="MAGATOM">     0</i>
   <v name="MAGDIPOL">      0.00000000      0.00000000      0.00000000</v>
   <v name="AVECCONST">      0.00000000      0.00000000      0.00000000</v>
  </separator>
  <separator name="response functions" >
   <i type="logical" name="LALL_IN_ONE"> F  </i>
   <i type="int" name="IALL_IN_ONE">    -1</i>
   <i type="int" name="NBANDS_WAVE">    -1</i>
   <i type="logical" name="LFINITE_TEMPERATURE"> F  </i>
   <i type="logical" name="LADDER"> F  </i>
   <i type="logical" name="LRPAFORCE"> F  </i>
   <i type="logical" name="LFXC"> F  </i>
   <i type="logical" name="LHARTREE"> T  </i>
   <i type="int" name="IBSE">     0</i>
   <v type="int" name="KPOINT">    -1     0     0     0</v>
   <i type="logical" name="LTCTC"> F  </i>
   <i type="logical" name="LTCTE"> F  </i>
   <i type="logical" name="LTETE"> F  </i>
   <i type="logical" name="LTRIPLET"> F  </i>
   <i type="logical" name="LFXCEPS"> F  </i>
   <i type="logical" name="LFXHEG"> F  </i>
   <i type="int" name="NATURALO">     2</i>
   <i type="logical" name="LHOLEGF"> F  </i>
   <i type="logical" name="L2ORDER"> F  </i>
   <i type="logical" name="LDMP1"> F  </i>
   <i type="logical" name="LMP2LT"> F  </i>
   <i type="logical" name="LSMP2LT"> F  </i>
   <i type="logical" name="LGWLF"> F  </i>
   <i name="ENCUTGW">     -1.60000002</i>
   <i name="ENCUTGWSOFT">     -1.60000002</i>
   <i name="ENCUTLF">     -1.00000000</i>
   <i type="logical" name="LESF_SPLINES"> F  </i>
   <i type="int" name="LMAXMP2">    -1</i>
   <i name="SCISSOR">      0.00000000</i>
   <i type="int" name="NOMEGA">     0</i>
   <i type="int" name="NOMEGAR">     0</i>
   <i type="int" name="NBANDSGW">    -1</i>
   <i type="int" name="NBANDSO">    -1</i>
   <i type="int" name="NBANDSV">    -1</i>
   <i type="int" name="NELMGW">     1</i>
   <i type="int" name="NELMHF">     1</i>
   <i type="int" name="DIM">     3</i>
   <i type="int" name="IESPILON">     4</i>
   <i type="int" name="ANTIRES">     0</i>
   <i name="OMEGAMAX">    -30.00000000</i>
   <i name="OMEGAMIN">    -30.00000000</i>
   <i name="OMEGATL">   -200.00000000</i>
   <i type="int" name="OMEGAGRID">     0</i>
   <i name="CSHIFT">     -0.10000000</i>
   <i type="logical" name="LSELFENERGY"> F  </i>
   <i type="logical" name="LSPECTRAL"> F  </i>
   <i type="logical" name="LSPECTRALGW"> F  </i>
   <i type="logical" name="LSINGLES"> F  </i>
   <i type="logical" name="LFERMIGW"> F  </i>
   <i type="logical" name="ODDONLYGW"> F  </i>
   <i type="logical" name="EVENONLYGW"> F  </i>
   <i type="int" name="NKREDLFX">     1</i>
   <i type="int" name="NKREDLFY">     1</i>
   <i type="int" name="NKREDLFZ">     1</i>
   <i type="int" name="MAXMEM">  2800</i>
   <i type="int" name="TELESCOPE">     0</i>
   <i type="int" name="NTAUPAR">    -1</i>
   <i type="int" name="NOMEGAPAR">    -1</i>
   <i name="DAMP_NEWTON">      0.80000001</i>
   <i name="LAMBDA">      1.00000000</i>
  </separator>
  <separator name="External order field" >
   <i name="OFIELD_KAPPA">      0.00000000</i>
   <v name="OFIELD_K">      0.00000000      0.00000000      0.00000000</v>
   <i name="OFIELD_Q6_NEAR">      0.00000000</i>
   <i name="OFIELD_Q6_FAR">      0.00000000</i>
   <i name="OFIELD_A">      0.00000000</i>
  </separator>
  <separator name="optional k-points parameters" >
   <i type="int" name="KPOINTS_OPT_MODE">     1</i>
   <i type="logical" name="LKPOINTS_OPT"> F  </i>
  </separator>
 </parameters>
 <atominfo>
  <atoms>     246 </atoms>
  <types>       3 </types>
  <array name="atoms" >
   <dimension dim="1">ion</dimension>
   <field type="string">element</field>
   <field type="int">atomtype</field>
   <set>
    <rc><c>C </c><c>   1</c></rc>
    <rc><c>C </c><c>   1</c></rc>
    <rc><c>C </c><c>   1</c></rc>
    <rc><c>C </c><c>   1</c></rc>
    <rc><c>C </c><c>   1</c></rc>
    <rc><c>C </c><c>   1</c></rc>
    <rc><c>C </c><c>   1</c></rc>
    <rc><c>C </c><c>   1</c></rc>
    <rc><c>C </c><c>   1</c></rc>
    <rc><c>C </c><c>   1</c></rc>
    <rc><c>C </c><c>   1</c></rc>
    <rc><c>C </c><c>   1</c></rc>
    <rc><c>C </c><c>   1</c></rc>
    <rc><c>C </c><c>   1</c></rc>
    <rc><c>H </c><c>   2</c></rc>
    <rc><c>H </c><c>   2</c></rc>
    <rc><c>H </c><c>   2</c></rc>
    <rc><c>H </c><c>   2</c></rc>
    <rc><c>H </c><c>   2</c></rc>
    <rc><c>H </c><c>   2</c></rc>
    <rc><c>H </c><c>   2</c></rc>
    <rc><c>H </c><c>   2</c></rc>
    <rc><c>H </c><c>   2</c></rc>
    <rc><c>H </c><c>   2</c></rc>
    <rc><c>H </c><c>   2</c></rc>
    <rc><c>H </c><c>   2</c></rc>
    <rc><c>H </c><c>   2</c></rc>
    <rc><c>H </c><c>   2</c></rc>
    <rc><c>H </c><c>   2</c></rc>
    <rc><c>H </c><c>   2</c></rc>
    <rc><c>H </c><c>   2</c></rc>
    <rc><c>H </c><c>   2</c></rc>
    <rc><c>H </c><c>   2</c></rc>
    <rc><c>H </c><c>   2</c></rc>
    <rc><c>H </c><c>   2</c></rc>
    <rc><c>H </c><c>   2</c></rc>
    <rc><c>H </c><c>   2</c></rc>
    <rc><c>H </c><c>   2</c></rc>
    <rc><c>H </c><c>   2</c></rc>
    <rc><c>H </c><c>   2</c></rc>
    <rc><c>H </c><c>   2</c></rc>
    <rc><c>H </c><c>   2</c></rc>
    <rc><c>H </c><c>   2</c></rc>
    <rc><c>H </c><c>   2</c></rc>
    <rc><c>H </c><c>   2</c></rc>
    <rc><c>H </c><c>   2</c></rc>
    <rc><c>H </c><c>   2</c></rc>
    <rc><c>H </c><c>   2</c></rc>
    <rc><c>H </c><c>   2</c></rc>
    <rc><c>H </c><c>   2</c></rc>
    <rc><c>H </c><c>   2</c></rc>
    <rc><c>H </c><c>   2</c></rc>
    <rc><c>H </c><c>   2</c></rc>
    <rc><c>H </c><c>   2</c></rc>
    <rc><c>Si</c><c>   3</c></rc>
    <rc><c>Si</c><c>   3</c></rc>
    <rc><c>Si</c><c>   3</c></rc>
    <rc><c>Si</c><c>   3</c></rc>
    <rc><c>Si</c><c>   3</c></rc>
    <rc><c>Si</c><c>   3</c></rc>
    <rc><c>Si</c><c>   3</c></rc>
    <rc><c>Si</c><c>   3</c></rc>
    <rc><c>Si</c><c>   3</c></rc>
    <rc><c>Si</c><c>   3</c></rc>
    <rc><c>Si</c><c>   3</c></rc>
    <rc><c>Si</c><c>   3</c></rc>
    <rc><c>Si</c><c>   3</c></rc>
    <rc><c>Si</c><c>   3</c></rc>
    <rc><c>Si</c><c>   3</c></rc>
    <rc><c>Si</c><c>   3</c></rc>
    <rc><c>Si</c><c>   3</c></rc>
    <rc><c>Si</c><c>   3</c></rc>
    <rc><c>Si</c><c>   3</c></rc>
    <rc><c>Si</c><c>   3</c></rc>
    <rc><c>Si</c><c>   3</c></rc>
    <rc><c>Si</c><c>   3</c></rc>
    <rc><c>Si</c><c>   3</c></rc>
    <rc><c>Si</c><c>   3</c></rc>
    <rc><c>Si</c><c>   3</c></rc>
    <rc><c>Si</c><c>   3</c></rc>
    <rc><c>Si</c><c>   3</c></rc>
    <rc><c>Si</c><c>   3</c></rc>
    <rc><c>Si</c><c>   3</c></rc>
    <rc><c>Si</c><c>   3</c></rc>
    <rc><c>Si</c><c>   3</c></rc>
    <rc><c>Si</c><c>   3</c></rc>
    <rc><c>Si</c><c>   3</c></rc>
    <rc><c>Si</c><c>   3</c></rc>
    <rc><c>Si</c><c>   3</c></rc>
    <rc><c>Si</c><c>   3</c></rc>
    <rc><c>Si</c><c>   3</c></rc>
    <rc><c>Si</c><c>   3</c></rc>
    <rc><c>Si</c><c>   3</c></rc>
    <rc><c>Si</c><c>   3</c></rc>
    <rc><c>Si</c><c>   3</c></rc>
    <rc><c>Si</c><c>   3</c></rc>
    <rc><c>Si</c><c>   3</c></rc>
    <rc><c>Si</c><c>   3</c></rc>
    <rc><c>Si</c><c>   3</c></rc>
    <rc><c>Si</c><c>   3</c></rc>
    <rc><c>Si</c><c>   3</c></rc>
    <rc><c>Si</c><c>   3</c></rc>
    <rc><c>Si</c><c>   3</c></rc>
    <rc><c>Si</c><c>   3</c></rc>
    <rc><c>Si</c><c>   3</c></rc>
    <rc><c>Si</c><c>   3</c></rc>
    <rc><c>Si</c><c>   3</c></rc>
    <rc><c>Si</c><c>   3</c></rc>
    <rc><c>Si</c><c>   3</c></rc>
    <rc><c>Si</c><c>   3</c></rc>
    <rc><c>Si</c><c>   3</c></rc>
    <rc><c>Si</c><c>   3</c></rc>
    <rc><c>Si</c><c>   3</c></rc>
    <rc><c>Si</c><c>   3</c></rc>
    <rc><c>Si</c><c>   3</c></rc>
    <rc><c>Si</c><c>   3</c></rc>
    <rc><c>Si</c><c>   3</c></rc>
    <rc><c>Si</c><c>   3</c></rc>
    <rc><c>Si</c><c>   3</c></rc>
    <rc><c>Si</c><c>   3</c></rc>
    <rc><c>Si</c><c>   3</c></rc>
    <rc><c>Si</c><c>   3</c></rc>
    <rc><c>Si</c><c>   3</c></rc>
    <rc><c>Si</c><c>   3</c></rc>
    <rc><c>Si</c><c>   3</c></rc>
    <rc><c>Si</c><c>   3</c></rc>
    <rc><c>Si</c><c>   3</c></rc>
    <rc><c>Si</c><c>   3</c></rc>
    <rc><c>Si</c><c>   3</c></rc>
    <rc><c>Si</c><c>   3</c></rc>
    <rc><c>Si</c><c>   3</c></rc>
    <rc><c>Si</c><c>   3</c></rc>
    <rc><c>Si</c><c>   3</c></rc>
    <rc><c>Si</c><c>   3</c></rc>
    <rc><c>Si</c><c>   3</c></rc>
    <rc><c>Si</c><c>   3</c></rc>
    <rc><c>Si</c><c>   3</c></rc>
    <rc><c>Si</c><c>   3</c></rc>
    <rc><c>Si</c><c>   3</c></rc>
    <rc><c>Si</c><c>   3</c></rc>
    <rc><c>Si</c><c>   3</c></rc>
    <rc><c>Si</c><c>   3</c></rc>
    <rc><c>Si</c><c>   3</c></rc>
    <rc><c>Si</c><c>   3</c></rc>
    <rc><c>Si</c><c>   3</c></rc>
    <rc><c>Si</c><c>   3</c></rc>
    <rc><c>Si</c><c>   3</c></rc>
    <rc><c>Si</c><c>   3</c></rc>
    <rc><c>Si</c><c>   3</c></rc>
    <rc><c>Si</c><c>   3</c></rc>
    <rc><c>Si</c><c>   3</c></rc>
    <rc><c>Si</c><c>   3</c></rc>
    <rc><c>Si</c><c>   3</c></rc>
    <rc><c>Si</c><c>   3</c></rc>
    <rc><c>Si</c><c>   3</c></rc>
    <rc><c>Si</c><c>   3</c></rc>
    <rc><c>Si</c><c>   3</c></rc>
    <rc><c>Si</c><c>   3</c></rc>
    <rc><c>Si</c><c>   3</c></rc>
    <rc><c>Si</c><c>   3</c></rc>
    <rc><c>Si</c><c>   3</c></rc>
    <rc><c>Si</c><c>   3</c></rc>
    <rc><c>Si</c><c>   3</c></rc>
    <rc><c>Si</c><c>   3</c></rc>
    <rc><c>Si</c><c>   3</c></rc>
    <rc><c>Si</c><c>   3</c></rc>
    <rc><c>Si</c><c>   3</c></rc>
    <rc><c>Si</c><c>   3</c></rc>
    <rc><c>Si</c><c>   3</c></rc>
    <rc><c>Si</c><c>   3</c></rc>
    <rc><c>Si</c><c>   3</c></rc>
    <rc><c>Si</c><c>   3</c></rc>
    <rc><c>Si</c><c>   3</c></rc>
    <rc><c>Si</c><c>   3</c></rc>
    <rc><c>Si</c><c>   3</c></rc>
    <rc><c>Si</c><c>   3</c></rc>
    <rc><c>Si</c><c>   3</c></rc>
    <rc><c>Si</c><c>   3</c></rc>
    <rc><c>Si</c><c>   3</c></rc>
    <rc><c>Si</c><c>   3</c></rc>
    <rc><c>Si</c><c>   3</c></rc>
    <rc><c>Si</c><c>   3</c></rc>
    <rc><c>Si</c><c>   3</c></rc>
    <rc><c>Si</c><c>   3</c></rc>
    <rc><c>Si</c><c>   3</c></rc>
    <rc><c>Si</c><c>   3</c></rc>
    <rc><c>Si</c><c>   3</c></rc>
    <rc><c>Si</c><c>   3</c></rc>
    <rc><c>Si</c><c>   3</c></rc>
    <rc><c>Si</c><c>   3</c></rc>
    <rc><c>Si</c><c>   3</c></rc>
    <rc><c>Si</c><c>   3</c></rc>
    <rc><c>Si</c><c>   3</c></rc>
    <rc><c>Si</c><c>   3</c></rc>
    <rc><c>Si</c><c>   3</c></rc>
    <rc><c>Si</c><c>   3</c></rc>
    <rc><c>Si</c><c>   3</c></rc>
    <rc><c>Si</c><c>   3</c></rc>
    <rc><c>Si</c><c>   3</c></rc>
    <rc><c>Si</c><c>   3</c></rc>
    <rc><c>Si</c><c>   3</c></rc>
    <rc><c>Si</c><c>   3</c></rc>
    <rc><c>Si</c><c>   3</c></rc>
    <rc><c>Si</c><c>   3</c></rc>
    <rc><c>Si</c><c>   3</c></rc>
    <rc><c>Si</c><c>   3</c></rc>
    <rc><c>Si</c><c>   3</c></rc>
    <rc><c>Si</c><c>   3</c></rc>
    <rc><c>Si</c><c>   3</c></rc>
    <rc><c>Si</c><c>   3</c></rc>
    <rc><c>Si</c><c>   3</c></rc>
    <rc><c>Si</c><c>   3</c></rc>
    <rc><c>Si</c><c>   3</c></rc>
    <rc><c>Si</c><c>   3</c></rc>
    <rc><c>Si</c><c>   3</c></rc>
    <rc><c>Si</c><c>   3</c></rc>
    <rc><c>Si</c><c>   3</c></rc>
    <rc><c>Si</c><c>   3</c></rc>
    <rc><c>Si</c><c>   3</c></rc>
    <rc><c>Si</c><c>   3</c></rc>
    <rc><c>Si</c><c>   3</c></rc>
    <rc><c>Si</c><c>   3</c></rc>
    <rc><c>Si</c><c>   3</c></rc>
    <rc><c>Si</c><c>   3</c></rc>
    <rc><c>Si</c><c>   3</c></rc>
    <rc><c>Si</c><c>   3</c></rc>
    <rc><c>Si</c><c>   3</c></rc>
    <rc><c>Si</c><c>   3</c></rc>
    <rc><c>Si</c><c>   3</c></rc>
    <rc><c>Si</c><c>   3</c></rc>
    <rc><c>Si</c><c>   3</c></rc>
    <rc><c>Si</c><c>   3</c></rc>
    <rc><c>Si</c><c>   3</c></rc>
    <rc><c>Si</c><c>   3</c></rc>
    <rc><c>Si</c><c>   3</c></rc>
    <rc><c>Si</c><c>   3</c></rc>
    <rc><c>Si</c><c>   3</c></rc>
    <rc><c>Si</c><c>   3</c></rc>
    <rc><c>Si</c><c>   3</c></rc>
    <rc><c>Si</c><c>   3</c></rc>
    <rc><c>Si</c><c>   3</c></rc>
    <rc><c>Si</c><c>   3</c></rc>
    <rc><c>Si</c><c>   3</c></rc>
    <rc><c>Si</c><c>   3</c></rc>
    <rc><c>Si</c><c>   3</c></rc>
    <rc><c>Si</c><c>   3</c></rc>
   </set>
  </array>
  <array name="atomtypes" >
   <dimension dim="1">type</dimension>
   <field type="int">atomspertype</field>
   <field type="string">element</field>
   <field>mass</field>
   <field>valence</field>
   <field type="string">pseudopotential</field>
   <set>
    <rc><c>  14</c><c>C </c><c>     12.01100000</c><c>      4.00000000</c><c>  PAW_PBE C_GW 28Sep2005                </c></rc>
    <rc><c>  40</c><c>H </c><c>      1.00000000</c><c>      1.00000000</c><c>  PAW_PBE H_GW 21Apr2008                </c></rc>
    <rc><c> 192</c><c>Si</c><c>     28.08500000</c><c>      4.00000000</c><c>  PAW_PBE Si_GW 04May2012               </c></rc>
   </set>
  </array>
 </atominfo>
 <structure name="initialpos" >
  <crystal>
   <varray name="basis" >
    <v>      15.33298779       0.00000000       0.00000000 </v>
    <v>       7.66649389      13.27875694       0.00000000 </v>
    <v>       0.00000000       0.00000000      41.55799484 </v>
   </varray>
   <i name="volume">   8461.33316923 </i>
   <varray name="rec_basis" >
    <v>       0.06521886      -0.03765413       0.00000000 </v>
    <v>       0.00000000       0.07530825       0.00000000 </v>
    <v>       0.00000000       0.00000000       0.02406276 </v>
   </varray>
  </crystal>
  <varray name="positions" >
   <v>       0.48478775       0.52272914       0.57670599 </v>
   <v>       0.44092843       0.47157120       0.56148413 </v>
   <v>       0.53904432       0.55735425       0.55913414 </v>
   <v>       0.44959727       0.45514374       0.52658976 </v>
   <v>       0.50232281       0.49208031       0.50766887 </v>
   <v>       0.54189148       0.54648764       0.52534508 </v>
   <v>       0.58761703       0.60653097       0.57453782 </v>
   <v>       0.63028663       0.64943563       0.55611667 </v>
   <v>       0.62665894       0.64483832       0.52248014 </v>
   <v>       0.59268105       0.58787782       0.50771246 </v>
   <v>       0.39078002       0.42899190       0.58000241 </v>
   <v>       0.34933300       0.37688430       0.56661187 </v>
   <v>       0.36082243       0.35857917       0.53333264 </v>
   <v>       0.40751588       0.39670664       0.51429170 </v>
   <v>       0.38120343       0.44038007       0.60544906 </v>
   <v>       0.30728355       0.34812626       0.58039664 </v>
   <v>       0.33158090       0.31645511       0.52234804 </v>
   <v>       0.41699165       0.37771007       0.48876782 </v>
   <v>       0.48706928       0.52311425       0.60320397 </v>
   <v>       0.58876342       0.58152464       0.48222469 </v>
   <v>       0.65382050       0.68425138       0.50713687 </v>
   <v>       0.58781691       0.61417790       0.60125825 </v>
   <v>       0.66357693       0.69262631       0.56700875 </v>
   <v>       0.99904110       0.00302702       0.02059694 </v>
   <v>       0.49600352       0.00486735       0.02053811 </v>
   <v>       0.99920755       0.49781774       0.01852402 </v>
   <v>       0.50539041       0.49462164       0.02167679 </v>
   <v>       0.25300990       0.99314054       0.02128415 </v>
   <v>       0.75405338       0.99570313       0.02117451 </v>
   <v>       0.24864979       0.50455134       0.02044542 </v>
   <v>       0.75181472       0.50307526       0.02000289 </v>
   <v>       0.00182720       0.25509555       0.01983940 </v>
   <v>       0.49729418       0.24661917       0.01860740 </v>
   <v>       0.99469124       0.75183699       0.01949817 </v>
   <v>       0.50168930       0.74688536       0.02031946 </v>
   <v>       0.24869985       0.25171449       0.02039549 </v>
   <v>       0.74641326       0.25110829       0.02035596 </v>
   <v>       0.25546335       0.74706383       0.02140387 </v>
   <v>       0.74135364       0.75241597       0.01964821 </v>
   <v>       0.00475837       0.01032562       0.48655503 </v>
   <v>       0.50858469       0.99457647       0.48454590 </v>
   <v>       0.99926839       0.48954110       0.48506794 </v>
   <v>       0.25812819       0.99423361       0.48630306 </v>
   <v>       0.76986421       0.99739456       0.48484168 </v>
   <v>       0.23481637       0.51879600       0.48620269 </v>
   <v>       0.76758598       0.49154308       0.48294672 </v>
   <v>       0.00569508       0.25478454       0.48404073 </v>
   <v>       0.52380808       0.22255913       0.48318959 </v>
   <v>       0.98373606       0.74841542       0.48677513 </v>
   <v>       0.48464264       0.78042696       0.48316088 </v>
   <v>       0.26503715       0.24688571       0.48539066 </v>
   <v>       0.75370926       0.23925716       0.48316412 </v>
   <v>       0.24583213       0.75102228       0.48411518 </v>
   <v>       0.74887393       0.75471529       0.48559964 </v>
   <v>       0.00000000       0.00000000       0.05648431 </v>
   <v>       0.50000000       0.00000000       0.05648431 </v>
   <v>       0.00000000       0.50000000       0.05648431 </v>
   <v>       0.50000000       0.50000000       0.05648431 </v>
   <v>       0.25000000       0.00000000       0.05648431 </v>
   <v>       0.75000000       0.00000000       0.05648431 </v>
   <v>       0.25000000       0.50000000       0.05648431 </v>
   <v>       0.75000000       0.50000000       0.05648431 </v>
   <v>       0.00000000       0.25000000       0.05648431 </v>
   <v>       0.50000000       0.25000000       0.05648431 </v>
   <v>       0.00000000       0.75000000       0.05648431 </v>
   <v>       0.50000000       0.75000000       0.05648431 </v>
   <v>       0.25000000       0.25000000       0.05648431 </v>
   <v>       0.75000000       0.25000000       0.05648431 </v>
   <v>       0.25000000       0.75000000       0.05648431 </v>
   <v>       0.75000000       0.75000000       0.05648431 </v>
   <v>       0.83333331       0.83333331       0.07531242 </v>
   <v>       0.33333334       0.83333331       0.07531242 </v>
   <v>       0.83333331       0.33333334       0.07531242 </v>
   <v>       0.33333334       0.33333334       0.07531242 </v>
   <v>       0.08333334       0.83333331       0.07531242 </v>
   <v>       0.58333331       0.83333331       0.07531242 </v>
   <v>       0.08333334       0.33333334       0.07531242 </v>
   <v>       0.58333331       0.33333334       0.07531242 </v>
   <v>       0.83333331       0.08333334       0.07531242 </v>
   <v>       0.33333334       0.08333334       0.07531242 </v>
   <v>       0.83333331       0.58333331       0.07531242 </v>
   <v>       0.33333334       0.58333331       0.07531242 </v>
   <v>       0.08333334       0.08333334       0.07531242 </v>
   <v>       0.58333331       0.08333334       0.07531242 </v>
   <v>       0.08333334       0.58333331       0.07531242 </v>
   <v>       0.58333331       0.58333331       0.07531242 </v>
   <v>       0.83333331       0.83333331       0.13179672 </v>
   <v>       0.33333334       0.83333331       0.13179672 </v>
   <v>       0.83333331       0.33333334       0.13179672 </v>
   <v>       0.33333334       0.33333334       0.13179672 </v>
   <v>       0.08333334       0.83333331       0.13179672 </v>
   <v>       0.58333331       0.83333331       0.13179672 </v>
   <v>       0.08333334       0.33333334       0.13179672 </v>
   <v>       0.58333331       0.33333334       0.13179672 </v>
   <v>       0.83333331       0.08333334       0.13179672 </v>
   <v>       0.33333334       0.08333334       0.13179672 </v>
   <v>       0.83333331       0.58333331       0.13179672 </v>
   <v>       0.33333334       0.58333331       0.13179672 </v>
   <v>       0.08333334       0.08333334       0.13179672 </v>
   <v>       0.58333331       0.08333334       0.13179672 </v>
   <v>       0.08333334       0.58333331       0.13179672 </v>
   <v>       0.58333331       0.58333331       0.13179672 </v>
   <v>       0.66666669       0.66666669       0.15062483 </v>
   <v>       0.16666667       0.66666669       0.15062483 </v>
   <v>       0.66666669       0.16666667       0.15062483 </v>
   <v>       0.16666667       0.16666667       0.15062483 </v>
   <v>       0.91666669       0.66666669       0.15062483 </v>
   <v>       0.41666666       0.66666669       0.15062483 </v>
   <v>       0.91666669       0.16666667       0.15062483 </v>
   <v>       0.41666666       0.16666667       0.15062483 </v>
   <v>       0.66666669       0.91666669       0.15062483 </v>
   <v>       0.16666667       0.91666669       0.15062483 </v>
   <v>       0.66666669       0.41666666       0.15062483 </v>
   <v>       0.16666667       0.41666666       0.15062483 </v>
   <v>       0.91666669       0.91666669       0.15062483 </v>
   <v>       0.41666666       0.91666669       0.15062483 </v>
   <v>       0.91666669       0.41666666       0.15062483 </v>
   <v>       0.41666666       0.41666666       0.15062483 </v>
   <v>       0.66691256       0.66650248       0.20705401 </v>
   <v>       0.16691388       0.66649014       0.20705898 </v>
   <v>       0.66690344       0.16650572       0.20706598 </v>
   <v>       0.16684061       0.16660814       0.20708179 </v>
   <v>       0.91692531       0.66649854       0.20705918 </v>
   <v>       0.41692519       0.66647869       0.20706536 </v>
   <v>       0.91692513       0.16650243       0.20707472 </v>
   <v>       0.41696414       0.16651435       0.20706745 </v>
   <v>       0.66691798       0.91648233       0.20704251 </v>
   <v>       0.16694951       0.91644073       0.20704633 </v>
   <v>       0.66691595       0.41648963       0.20705459 </v>
   <v>       0.16692059       0.41647589       0.20705572 </v>
   <v>       0.91694874       0.91646326       0.20705239 </v>
   <v>       0.41701031       0.91640425       0.20704820 </v>
   <v>       0.91693836       0.41649175       0.20706076 </v>
   <v>       0.41692036       0.41647944       0.20706344 </v>
   <v>       0.50027961       0.49979386       0.22588077 </v>
   <v>       0.00028667       0.49982324       0.22588117 </v>
   <v>       0.50028664       0.99980050       0.22585523 </v>
   <v>       0.00032078       0.99976605       0.22586109 </v>
   <v>       0.75028151       0.49981755       0.22585415 </v>
   <v>       0.25025454       0.49979892       0.22586794 </v>
   <v>       0.75028825       0.99977207       0.22584361 </v>
   <v>       0.25032210       0.99981099       0.22577891 </v>
   <v>       0.50031888       0.74973106       0.22591362 </v>
   <v>       0.00028389       0.74979836       0.22589213 </v>
   <v>       0.50029421       0.24984773       0.22593303 </v>
   <v>       0.00016690       0.24989246       0.22594904 </v>
   <v>       0.75026935       0.74982309       0.22586657 </v>
   <v>       0.25028658       0.74977243       0.22589330 </v>
   <v>       0.75025457       0.24982803       0.22588789 </v>
   <v>       0.25034884       0.24982284       0.22589789 </v>
   <v>       0.50049311       0.49963021       0.28230625 </v>
   <v>       0.00050731       0.49968964       0.28230851 </v>
   <v>       0.50051337       0.99962586       0.28226964 </v>
   <v>       0.00059072       0.99956340       0.28227770 </v>
   <v>       0.75046229       0.49970725       0.28226706 </v>
   <v>       0.25044429       0.49965557       0.28228562 </v>
   <v>       0.75051129       0.99957675       0.28225109 </v>
   <v>       0.25060219       0.99960679       0.28215270 </v>
   <v>       0.50056702       0.74950278       0.28235546 </v>
   <v>       0.00050130       0.74963838       0.28232343 </v>
   <v>       0.50053847       0.24974354       0.28238247 </v>
   <v>       0.00022542       0.24985044       0.28240289 </v>
   <v>       0.75046211       0.74969256       0.28228702 </v>
   <v>       0.25051790       0.74957991       0.28232459 </v>
   <v>       0.75041085       0.24970731       0.28231667 </v>
   <v>       0.25066370       0.24970363       0.28232852 </v>
   <v>       0.33391163       0.33313787       0.30122887 </v>
   <v>       0.83340478       0.33325410       0.30123816 </v>
   <v>       0.33380580       0.83306384       0.30105916 </v>
   <v>       0.83384037       0.83295310       0.30113371 </v>
   <v>       0.58387220       0.33310598       0.30124070 </v>
   <v>       0.08398665       0.33295631       0.30108731 </v>
   <v>       0.58382905       0.83298177       0.30112000 </v>
   <v>       0.08388577       0.83291119       0.30115693 </v>
   <v>       0.33384538       0.58284026       0.30112975 </v>
   <v>       0.83381855       0.58302647       0.30109687 </v>
   <v>       0.33384517       0.08289958       0.30104594 </v>
   <v>       0.83388197       0.08288339       0.30102269 </v>
   <v>       0.58398402       0.58273447       0.30118588 </v>
   <v>       0.08386202       0.58297580       0.30116989 </v>
   <v>       0.58390039       0.08290785       0.30108313 </v>
   <v>       0.08406826       0.08289581       0.30098030 </v>
   <v>       0.33232237       0.33128396       0.35734476 </v>
   <v>       0.83685584       0.32769948       0.35781886 </v>
   <v>       0.33716124       0.82055932       0.35750583 </v>
   <v>       0.83381919       0.82927560       0.35721629 </v>
   <v>       0.58223745       0.33838216       0.35776305 </v>
   <v>       0.08896981       0.32736151       0.35730709 </v>
   <v>       0.58432223       0.83972677       0.35688817 </v>
   <v>       0.08205765       0.83130495       0.35723209 </v>
   <v>       0.33226992       0.57875656       0.35791840 </v>
   <v>       0.82841210       0.58504022       0.35752078 </v>
   <v>       0.33153881       0.08678352       0.35601423 </v>
   <v>       0.83245420       0.07869995       0.35483873 </v>
   <v>       0.57636999       0.58539414       0.35765191 </v>
   <v>       0.07726980       0.58345440       0.35574367 </v>
   <v>       0.58024736       0.08639284       0.35649929 </v>
   <v>       0.08699644       0.08026015       0.35763033 </v>
   <v>       0.16497809       0.16861414       0.37538213 </v>
   <v>       0.66753139       0.16575647       0.37243864 </v>
   <v>       0.15935181       0.66779232       0.37396192 </v>
   <v>       0.66135509       0.66659827       0.37618168 </v>
   <v>       0.41772590       0.16194232       0.37646532 </v>
   <v>       0.92233100       0.15373093       0.37462965 </v>
   <v>       0.41653281       0.65663305       0.37941162 </v>
   <v>       0.91175349       0.66715067       0.37648484 </v>
   <v>       0.16819785       0.41826869       0.37641194 </v>
   <v>       0.66459674       0.41666547       0.37729050 </v>
   <v>       0.17070490       0.91531320       0.37481943 </v>
   <v>       0.66837878       0.91921052       0.37642456 </v>
   <v>       0.41836982       0.41467239       0.37868903 </v>
   <v>       0.91755962       0.41460084       0.37180533 </v>
   <v>       0.40934902       0.91872974       0.37090196 </v>
   <v>       0.91791074       0.91330929       0.37485746 </v>
   <v>       0.17162893       0.16413394       0.43239312 </v>
   <v>       0.67577132       0.16502540       0.42792216 </v>
   <v>       0.16143117       0.67066412       0.43033071 </v>
   <v>       0.66370107       0.66830200       0.43448474 </v>
   <v>       0.41992558       0.17032034       0.43190482 </v>
   <v>       0.92498936       0.16508624       0.43008483 </v>
   <v>       0.41804467       0.65348995       0.43593647 </v>
   <v>       0.91289808       0.67170244       0.43237550 </v>
   <v>       0.16092436       0.42311055       0.43201544 </v>
   <v>       0.66589380       0.41826967       0.43387693 </v>
   <v>       0.16811578       0.92074785       0.43038994 </v>
   <v>       0.66601018       0.92177487       0.43243028 </v>
   <v>       0.42603489       0.41417662       0.43458852 </v>
   <v>       0.92470945       0.41266358       0.42712659 </v>
   <v>       0.41439942       0.92410865       0.42703578 </v>
   <v>       0.91744263       0.91745551       0.43072395 </v>
   <v>       0.00255587       0.99830223       0.44980505 </v>
   <v>       0.49791752       0.00656101       0.44921011 </v>
   <v>       0.99288128       0.50402090       0.44863873 </v>
   <v>       0.50564508       0.48941630       0.46085579 </v>
   <v>       0.25662855       0.99790283       0.44971336 </v>
   <v>       0.75033630       0.00122432       0.44871892 </v>
   <v>       0.24774177       0.50439345       0.45003868 </v>
   <v>       0.76078027       0.49441322       0.44759708 </v>
   <v>       0.00652252       0.25144447       0.44883379 </v>
   <v>       0.51260410       0.24349115       0.44740420 </v>
   <v>       0.99621390       0.75331825       0.45038877 </v>
   <v>       0.49330194       0.75544396       0.44771528 </v>
   <v>       0.25220396       0.25242543       0.44913775 </v>
   <v>       0.75764730       0.24938276       0.44768435 </v>
   <v>       0.24726919       0.75201590       0.44873931 </v>
   <v>       0.74831849       0.75387055       0.44976622 </v>
  </varray>
  <varray name="selective"  type="logical" >
   <v type="logical" >  T  T  T </v>
   <v type="logical" >  T  T  T </v>
   <v type="logical" >  T  T  T </v>
   <v type="logical" >  T  T  T </v>
   <v type="logical" >  T  T  T </v>
   <v type="logical" >  T  T  T </v>
   <v type="logical" >  T  T  T </v>
   <v type="logical" >  T  T  T </v>
   <v type="logical" >  T  T  T </v>
   <v type="logical" >  T  T  T </v>
   <v type="logical" >  T  T  T </v>
   <v type="logical" >  T  T  T </v>
   <v type="logical" >  T  T  T </v>
   <v type="logical" >  T  T  T </v>
   <v type="logical" >  T  T  T </v>
   <v type="logical" >  T  T  T </v>
   <v type="logical" >  T  T  T </v>
   <v type="logical" >  T  T  T </v>
   <v type="logical" >  T  T  T </v>
   <v type="logical" >  T  T  T </v>
   <v type="logical" >  T  T  T </v>
   <v type="logical" >  T  T  T </v>
   <v type="logical" >  T  T  T </v>
   <v type="logical" >  T  T  T </v>
   <v type="logical" >  T  T  T </v>
   <v type="logical" >  T  T  T </v>
   <v type="logical" >  T  T  T </v>
   <v type="logical" >  T  T  T </v>
   <v type="logical" >  T  T  T </v>
   <v type="logical" >  T  T  T </v>
   <v type="logical" >  T  T  T </v>
   <v type="logical" >  T  T  T </v>
   <v type="logical" >  T  T  T </v>
   <v type="logical" >  T  T  T </v>
   <v type="logical" >  T  T  T </v>
   <v type="logical" >  T  T  T </v>
   <v type="logical" >  T  T  T </v>
   <v type="logical" >  T  T  T </v>
   <v type="logical" >  T  T  T </v>
   <v type="logical" >  T  T  T </v>
   <v type="logical" >  T  T  T </v>
   <v type="logical" >  T  T  T </v>
   <v type="logical" >  T  T  T </v>
   <v type="logical" >  T  T  T </v>
   <v type="logical" >  T  T  T </v>
   <v type="logical" >  T  T  T </v>
   <v type="logical" >  T  T  T </v>
   <v type="logical" >  T  T  T </v>
   <v type="logical" >  T  T  T </v>
   <v type="logical" >  T  T  T </v>
   <v type="logical" >  T  T  T </v>
   <v type="logical" >  T  T  T </v>
   <v type="logical" >  T  T  T </v>
   <v type="logical" >  T  T  T </v>
   <v type="logical" >  F  F  F </v>
   <v type="logical" >  F  F  F </v>
   <v type="logical" >  F  F  F </v>
   <v type="logical" >  F  F  F </v>
   <v type="logical" >  F  F  F </v>
   <v type="logical" >  F  F  F </v>
   <v type="logical" >  F  F  F </v>
   <v type="logical" >  F  F  F </v>
   <v type="logical" >  F  F  F </v>
   <v type="logical" >  F  F  F </v>
   <v type="logical" >  F  F  F </v>
   <v type="logical" >  F  F  F </v>
   <v type="logical" >  F  F  F </v>
   <v type="logical" >  F  F  F </v>
   <v type="logical" >  F  F  F </v>
   <v type="logical" >  F  F  F </v>
   <v type="logical" >  F  F  F </v>
   <v type="logical" >  F  F  F </v>
   <v type="logical" >  F  F  F </v>
   <v type="logical" >  F  F  F </v>
   <v type="logical" >  F  F  F </v>
   <v type="logical" >  F  F  F </v>
   <v type="logical" >  F  F  F </v>
   <v type="logical" >  F  F  F </v>
   <v type="logical" >  F  F  F </v>
   <v type="logical" >  F  F  F </v>
   <v type="logical" >  F  F  F </v>
   <v type="logical" >  F  F  F </v>
   <v type="logical" >  F  F  F </v>
   <v type="logical" >  F  F  F </v>
   <v type="logical" >  F  F  F </v>
   <v type="logical" >  F  F  F </v>
   <v type="logical" >  F  F  F </v>
   <v type="logical" >  F  F  F </v>
   <v type="logical" >  F  F  F </v>
   <v type="logical" >  F  F  F </v>
   <v type="logical" >  F  F  F </v>
   <v type="logical" >  F  F  F </v>
   <v type="logical" >  F  F  F </v>
   <v type="logical" >  F  F  F </v>
   <v type="logical" >  F  F  F </v>
   <v type="logical" >  F  F  F </v>
   <v type="logical" >  F  F  F </v>
   <v type="logical" >  F  F  F </v>
   <v type="logical" >  F  F  F </v>
   <v type="logical" >  F  F  F </v>
   <v type="logical" >  F  F  F </v>
   <v type="logical" >  F  F  F </v>
   <v type="logical" >  F  F  F </v>
   <v type="logical" >  F  F  F </v>
   <v type="logical" >  F  F  F </v>
   <v type="logical" >  F  F  F </v>
   <v type="logical" >  F  F  F </v>
   <v type="logical" >  F  F  F </v>
   <v type="logical" >  F  F  F </v>
   <v type="logical" >  F  F  F </v>
   <v type="logical" >  F  F  F </v>
   <v type="logical" >  F  F  F </v>
   <v type="logical" >  F  F  F </v>
   <v type="logical" >  F  F  F </v>
   <v type="logical" >  F  F  F </v>
   <v type="logical" >  F  F  F </v>
   <v type="logical" >  F  F  F </v>
   <v type="logical" >  F  F  F </v>
   <v type="logical" >  F  F  F </v>
   <v type="logical" >  F  F  F </v>
   <v type="logical" >  F  F  F </v>
   <v type="logical" >  F  F  F </v>
   <v type="logical" >  F  F  F </v>
   <v type="logical" >  F  F  F </v>
   <v type="logical" >  F  F  F </v>
   <v type="logical" >  F  F  F </v>
   <v type="logical" >  F  F  F </v>
   <v type="logical" >  F  F  F </v>
   <v type="logical" >  F  F  F </v>
   <v type="logical" >  F  F  F </v>
   <v type="logical" >  F  F  F </v>
   <v type="logical" >  F  F  F </v>
   <v type="logical" >  F  F  F </v>
   <v type="logical" >  F  F  F </v>
   <v type="logical" >  F  F  F </v>
   <v type="logical" >  F  F  F </v>
   <v type="logical" >  F  F  F </v>
   <v type="logical" >  F  F  F </v>
   <v type="logical" >  F  F  F </v>
   <v type="logical" >  F  F  F </v>
   <v type="logical" >  F  F  F </v>
   <v type="logical" >  F  F  F </v>
   <v type="logical" >  F  F  F </v>
   <v type="logical" >  F  F  F </v>
   <v type="logical" >  F  F  F </v>
   <v type="logical" >  F  F  F </v>
   <v type="logical" >  F  F  F </v>
   <v type="logical" >  F  F  F </v>
   <v type="logical" >  F  F  F </v>
   <v type="logical" >  F  F  F </v>
   <v type="logical" >  F  F  F </v>
   <v type="logical" >  F  F  F </v>
   <v type="logical" >  F  F  F </v>
   <v type="logical" >  F  F  F </v>
   <v type="logical" >  F  F  F </v>
   <v type="logical" >  F  F  F </v>
   <v type="logical" >  F  F  F </v>
   <v type="logical" >  F  F  F </v>
   <v type="logical" >  F  F  F </v>
   <v type="logical" >  F  F  F </v>
   <v type="logical" >  F  F  F </v>
   <v type="logical" >  F  F  F </v>
   <v type="logical" >  F  F  F </v>
   <v type="logical" >  F  F  F </v>
   <v type="logical" >  F  F  F </v>
   <v type="logical" >  F  F  F </v>
   <v type="logical" >  F  F  F </v>
   <v type="logical" >  F  F  F </v>
   <v type="logical" >  F  F  F </v>
   <v type="logical" >  F  F  F </v>
   <v type="logical" >  F  F  F </v>
   <v type="logical" >  F  F  F </v>
   <v type="logical" >  F  F  F </v>
   <v type="logical" >  F  F  F </v>
   <v type="logical" >  F  F  F </v>
   <v type="logical" >  F  F  F </v>
   <v type="logical" >  F  F  F </v>
   <v type="logical" >  F  F  F </v>
   <v type="logical" >  F  F  F </v>
   <v type="logical" >  F  F  F </v>
   <v type="logical" >  F  F  F </v>
   <v type="logical" >  F  F  F </v>
   <v type="logical" >  T  T  T </v>
   <v type="logical" >  T  T  T </v>
   <v type="logical" >  T  T  T </v>
   <v type="logical" >  T  T  T </v>
   <v type="logical" >  T  T  T </v>
   <v type="logical" >  T  T  T </v>
   <v type="logical" >  T  T  T </v>
   <v type="logical" >  T  T  T </v>
   <v type="logical" >  T  T  T </v>
   <v type="logical" >  T  T  T </v>
   <v type="logical" >  T  T  T </v>
   <v type="logical" >  T  T  T </v>
   <v type="logical" >  T  T  T </v>
   <v type="logical" >  T  T  T </v>
   <v type="logical" >  T  T  T </v>
   <v type="logical" >  T  T  T </v>
   <v type="logical" >  T  T  T </v>
   <v type="logical" >  T  T  T </v>
   <v type="logical" >  T  T  T </v>
   <v type="logical" >  T  T  T </v>
   <v type="logical" >  T  T  T </v>
   <v type="logical" >  T  T  T </v>
   <v type="logical" >  T  T  T </v>
   <v type="logical" >  T  T  T </v>
   <v type="logical" >  T  T  T </v>
   <v type="logical" >  T  T  T </v>
   <v type="logical" >  T  T  T </v>
   <v type="logical" >  T  T  T </v>
   <v type="logical" >  T  T  T </v>
   <v type="logical" >  T  T  T </v>
   <v type="logical" >  T  T  T </v>
   <v type="logical" >  T  T  T </v>
   <v type="logical" >  T  T  T </v>
   <v type="logical" >  T  T  T </v>
   <v type="logical" >  T  T  T </v>
   <v type="logical" >  T  T  T </v>
   <v type="logical" >  T  T  T </v>
   <v type="logical" >  T  T  T </v>
   <v type="logical" >  T  T  T </v>
   <v type="logical" >  T  T  T </v>
   <v type="logical" >  T  T  T </v>
   <v type="logical" >  T  T  T </v>
   <v type="logical" >  T  T  T </v>
   <v type="logical" >  T  T  T </v>
   <v type="logical" >  T  T  T </v>
   <v type="logical" >  T  T  T </v>
   <v type="logical" >  T  T  T </v>
   <v type="logical" >  T  T  T </v>
   <v type="logical" >  T  T  T </v>
   <v type="logical" >  T  T  T </v>
   <v type="logical" >  T  T  T </v>
   <v type="logical" >  T  T  T </v>
   <v type="logical" >  T  T  T </v>
   <v type="logical" >  T  T  T </v>
   <v type="logical" >  T  T  T </v>
   <v type="logical" >  T  T  T </v>
   <v type="logical" >  T  T  T </v>
   <v type="logical" >  T  T  T </v>
   <v type="logical" >  T  T  T </v>
   <v type="logical" >  T  T  T </v>
   <v type="logical" >  T  T  T </v>
   <v type="logical" >  T  T  T </v>
   <v type="logical" >  T  T  T </v>
   <v type="logical" >  T  T  T </v>
  </varray>
  <varray name="velocities" >
   <v>      -0.00013024       0.00017386      -0.00001943 </v>
   <v>       0.00019419       0.00013007       0.00014014 </v>
   <v>      -0.00002403      -0.00012266      -0.00012619 </v>
   <v>       0.00030330      -0.00021809       0.00006698 </v>
   <v>      -0.00004519      -0.00007462      -0.00009882 </v>
   <v>      -0.00020505       0.00011334      -0.00008916 </v>
   <v>      -0.00029269       0.00032022      -0.00009133 </v>
   <v>       0.00013636       0.00007337       0.00008103 </v>
   <v>      -0.00044178      -0.00033540      -0.00013214 </v>
   <v>       0.00008340      -0.00012582      -0.00004001 </v>
   <v>      -0.00009808       0.00029411       0.00011387 </v>
   <v>      -0.00006592      -0.00007094       0.00011198 </v>
   <v>       0.00031561      -0.00048326      -0.00017123 </v>
   <v>      -0.00003867      -0.00036868       0.00003179 </v>
   <v>      -0.00186925       0.00071638      -0.00044568 </v>
[...]
   <v type="logical" >  F  F  F </v>
   <v type="logical" >  F  F  F </v>
   <v type="logical" >  F  F  F </v>
   <v type="logical" >  F  F  F </v>
   <v type="logical" >  F  F  F </v>
   <v type="logical" >  F  F  F </v>
   <v type="logical" >  F  F  F </v>
   <v type="logical" >  F  F  F </v>
   <v type="logical" >  F  F  F </v>
   <v type="logical" >  F  F  F </v>
   <v type="logical" >  F  F  F </v>
   <v type="logical" >  F  F  F </v>
   <v type="logical" >  F  F  F </v>
   <v type="logical" >  F  F  F </v>
   <v type="logical" >  F  F  F </v>
   <v type="logical" >  F  F  F </v>
   <v type="logical" >  F  F  F </v>
   <v type="logical" >  F  F  F </v>
   <v type="logical" >  F  F  F </v>
   <v type="logical" >  F  F  F </v>
   <v type="logical" >  F  F  F </v>
   <v type="logical" >  F  F  F </v>
   <v type="logical" >  F  F  F </v>
   <v type="logical" >  F  F  F </v>
   <v type="logical" >  F  F  F </v>
   <v type="logical" >  F  F  F </v>
   <v type="logical" >  F  F  F </v>
   <v type="logical" >  F  F  F </v>
   <v type="logical" >  F  F  F </v>
   <v type="logical" >  F  F  F </v>
   <v type="logical" >  F  F  F </v>
   <v type="logical" >  F  F  F </v>
   <v type="logical" >  F  F  F </v>
   <v type="logical" >  F  F  F </v>
   <v type="logical" >  F  F  F </v>
   <v type="logical" >  F  F  F </v>
   <v type="logical" >  F  F  F </v>
   <v type="logical" >  F  F  F </v>
   <v type="logical" >  F  F  F </v>
   <v type="logical" >  F  F  F </v>
   <v type="logical" >  F  F  F </v>
   <v type="logical" >  F  F  F </v>
   <v type="logical" >  F  F  F </v>
   <v type="logical" >  F  F  F </v>
   <v type="logical" >  F  F  F </v>
   <v type="logical" >  F  F  F </v>
   <v type="logical" >  F  F  F </v>
   <v type="logical" >  F  F  F </v>
   <v type="logical" >  F  F  F </v>
   <v type="logical" >  F  F  F </v>
   <v type="logical" >  F  F  F </v>
   <v type="logical" >  F  F  F </v>
   <v type="logical" >  T  T  T </v>
   <v type="logical" >  T  T  T </v>
   <v type="logical" >  T  T  T </v>
   <v type="logical" >  T  T  T </v>
   <v type="logical" >  T  T  T </v>
   <v type="logical" >  T  T  T </v>
   <v type="logical" >  T  T  T </v>
   <v type="logical" >  T  T  T </v>
   <v type="logical" >  T  T  T </v>
   <v type="logical" >  T  T  T </v>
   <v type="logical" >  T  T  T </v>
   <v type="logical" >  T  T  T </v>
   <v type="logical" >  T  T  T </v>
   <v type="logical" >  T  T  T </v>
   <v type="logical" >  T  T  T </v>
   <v type="logical" >  T  T  T </v>
   <v type="logical" >  T  T  T </v>
   <v type="logical" >  T  T  T </v>
   <v type="logical" >  T  T  T </v>
   <v type="logical" >  T  T  T </v>
   <v type="logical" >  T  T  T </v>
   <v type="logical" >  T  T  T </v>
   <v type="logical" >  T  T  T </v>
   <v type="logical" >  T  T  T </v>
   <v type="logical" >  T  T  T </v>
   <v type="logical" >  T  T  T </v>
   <v type="logical" >  T  T  T </v>
   <v type="logical" >  T  T  T </v>
   <v type="logical" >  T  T  T </v>
   <v type="logical" >  T  T  T </v>
   <v type="logical" >  T  T  T </v>
   <v type="logical" >  T  T  T </v>
   <v type="logical" >  T  T  T </v>
   <v type="logical" >  T  T  T </v>
   <v type="logical" >  T  T  T </v>
   <v type="logical" >  T  T  T </v>
   <v type="logical" >  T  T  T </v>
   <v type="logical" >  T  T  T </v>
   <v type="logical" >  T  T  T </v>
   <v type="logical" >  T  T  T </v>
   <v type="logical" >  T  T  T </v>
   <v type="logical" >  T  T  T </v>
   <v type="logical" >  T  T  T </v>
   <v type="logical" >  T  T  T </v>
   <v type="logical" >  T  T  T </v>
   <v type="logical" >  T  T  T </v>
   <v type="logical" >  T  T  T </v>
   <v type="logical" >  T  T  T </v>
   <v type="logical" >  T  T  T </v>
   <v type="logical" >  T  T  T </v>
   <v type="logical" >  T  T  T </v>
   <v type="logical" >  T  T  T </v>
   <v type="logical" >  T  T  T </v>
   <v type="logical" >  T  T  T </v>
   <v type="logical" >  T  T  T </v>
   <v type="logical" >  T  T  T </v>
   <v type="logical" >  T  T  T </v>
   <v type="logical" >  T  T  T </v>
   <v type="logical" >  T  T  T </v>
   <v type="logical" >  T  T  T </v>
   <v type="logical" >  T  T  T </v>
   <v type="logical" >  T  T  T </v>
   <v type="logical" >  T  T  T </v>
   <v type="logical" >  T  T  T </v>
  </varray>
  <varray name="velocities" >
   <v>      -0.00023467       0.00000202       0.00002470 </v>
   <v>      -0.00026110       0.00028367      -0.00014510 </v>
   <v>      -0.00042865       0.00010424       0.00000994 </v>
   <v>      -0.00032711       0.00046221       0.00010413 </v>
   <v>      -0.00000794      -0.00012317       0.00004070 </v>
   <v>       0.00043237      -0.00017071       0.00008587 </v>
   <v>      -0.00056130       0.00000476       0.00010270 </v>
   <v>       0.00018206      -0.00018298      -0.00016928 </v>
   <v>      -0.00007272       0.00013573      -0.00002287 </v>
   <v>      -0.00027620       0.00016486      -0.00005208 </v>
   <v>       0.00012540      -0.00007032       0.00000839 </v>
   <v>      -0.00006426      -0.00042884       0.00003297 </v>
   <v>       0.00021093       0.00030595      -0.00001457 </v>
   <v>      -0.00003527       0.00046535      -0.00001134 </v>
   <v>       0.00047611      -0.00055194       0.00059214 </v>
   <v>       0.00109086      -0.00205369       0.00007723 </v>
   <v>      -0.00060476       0.00024221      -0.00065306 </v>
   <v>       0.00183348       0.00021833      -0.00001643 </v>
   <v>       0.00039365      -0.00079584      -0.00017050 </v>
   <v>      -0.00016355      -0.00029007      -0.00035624 </v>
   <v>       0.00141424      -0.00120628      -0.00021195 </v>
   <v>       0.00040701       0.00034223       0.00025527 </v>
   <v>       0.00079810       0.00094351       0.00027915 </v>
   <v>      -0.00000716       0.00028988      -0.00018485 </v>
   <v>      -0.00068102       0.00076286      -0.00005393 </v>
   <v>      -0.00006761      -0.00033884       0.00053030 </v>
   <v>       0.00091458      -0.00096430      -0.00039660 </v>
   <v>       0.00031704      -0.00102326      -0.00040453 </v>
   <v>       0.00054245      -0.00058451      -0.00035831 </v>
   <v>      -0.00026473       0.00066316      -0.00002697 </v>
   <v>       0.00025009       0.00040307       0.00016123 </v>
   <v>       0.00024578       0.00069902       0.00025263 </v>
   <v>      -0.00037335      -0.00045767       0.00007925 </v>
   <v>      -0.00070189       0.00016805       0.00035549 </v>
   <v>       0.00028332      -0.00054906      -0.00004103 </v>
   <v>      -0.00013184       0.00025133      -0.00001516 </v>
   <v>      -0.00041644       0.00009383      -0.00003318 </v>
   <v>       0.00065380      -0.00051433      -0.00045440 </v>
   <v>      -0.00110597       0.00032212       0.00034459 </v>
   <v>       0.00041910       0.00056038      -0.00031872 </v>
   <v>       0.00117310      -0.00159335       0.00034560 </v>
   <v>       0.00113385      -0.00074160      -0.00013630 </v>
   <v>      -0.00133638       0.00070949      -0.00018952 </v>
   <v>       0.00176012       0.00074744      -0.00009488 </v>
   <v>      -0.00225752       0.00227502       0.00009516 </v>
   <v>       0.00188932      -0.00073817       0.00015698 </v>
   <v>       0.00041320       0.00031783       0.00039412 </v>
   <v>      -0.00011365       0.00081098       0.00005414 </v>
   <v>       0.00006990      -0.00116087      -0.00008447 </v>
   <v>       0.00077140      -0.00076747       0.00002689 </v>
   <v>      -0.00041390       0.00026571       0.00004851 </v>
   <v>      -0.00120910      -0.00038658       0.00021484 </v>
   <v>       0.00003550       0.00000259       0.00037193 </v>
   <v>       0.00006947      -0.00020125       0.00019840 </v>
   <v>       0.00000000       0.00000000       0.00000000 </v>
   <v>       0.00000000       0.00000000       0.00000000 </v>
   <v>       0.00000000       0.00000000       0.00000000 </v>
   <v>       0.00000000       0.00000000       0.00000000 </v>
   <v>       0.00000000       0.00000000       0.00000000 </v>
   <v>       0.00000000       0.00000000       0.00000000 </v>
   <v>       0.00000000       0.00000000       0.00000000 </v>
   <v>       0.00000000       0.00000000       0.00000000 </v>
   <v>       0.00000000       0.00000000       0.00000000 </v>
   <v>       0.00000000       0.00000000       0.00000000 </v>
   <v>       0.00000000       0.00000000       0.00000000 </v>
   <v>       0.00000000       0.00000000       0.00000000 </v>
   <v>       0.00000000       0.00000000       0.00000000 </v>
   <v>       0.00000000       0.00000000       0.00000000 </v>
   <v>       0.00000000       0.00000000       0.00000000 </v>
   <v>       0.00000000       0.00000000       0.00000000 </v>
   <v>       0.00000000       0.00000000       0.00000000 </v>
   <v>       0.00000000       0.00000000       0.00000000 </v>
   <v>       0.00000000       0.00000000       0.00000000 </v>
   <v>       0.00000000       0.00000000       0.00000000 </v>
   <v>       0.00000000       0.00000000       0.00000000 </v>
   <v>       0.00000000       0.00000000       0.00000000 </v>
   <v>       0.00000000       0.00000000       0.00000000 </v>
   <v>       0.00000000       0.00000000       0.00000000 </v>
   <v>       0.00000000       0.00000000       0.00000000 </v>
   <v>       0.00000000       0.00000000       0.00000000 </v>
   <v>       0.00000000       0.00000000       0.00000000 </v>
   <v>       0.00000000       0.00000000       0.00000000 </v>
   <v>       0.00000000       0.00000000       0.00000000 </v>
   <v>       0.00000000       0.00000000       0.00000000 </v>
   <v>       0.00000000       0.00000000       0.00000000 </v>
   <v>       0.00000000       0.00000000       0.00000000 </v>
   <v>       0.00000000       0.00000000       0.00000000 </v>
   <v>       0.00000000       0.00000000       0.00000000 </v>
   <v>       0.00000000       0.00000000       0.00000000 </v>
   <v>       0.00000000       0.00000000       0.00000000 </v>
   <v>       0.00000000       0.00000000       0.00000000 </v>
   <v>       0.00000000       0.00000000       0.00000000 </v>
   <v>       0.00000000       0.00000000       0.00000000 </v>
   <v>       0.00000000       0.00000000       0.00000000 </v>
   <v>       0.00000000       0.00000000       0.00000000 </v>
   <v>       0.00000000       0.00000000       0.00000000 </v>
   <v>       0.00000000       0.00000000       0.00000000 </v>
   <v>       0.00000000       0.00000000       0.00000000 </v>
   <v>       0.00000000       0.00000000       0.00000000 </v>
   <v>       0.00000000       0.00000000       0.00000000 </v>
   <v>       0.00000000       0.00000000       0.00000000 </v>
   <v>       0.00000000       0.00000000       0.00000000 </v>
   <v>       0.00000000       0.00000000       0.00000000 </v>
   <v>       0.00000000       0.00000000       0.00000000 </v>
   <v>       0.00000000       0.00000000       0.00000000 </v>
   <v>       0.00000000       0.00000000       0.00000000 </v>
   <v>       0.00000000       0.00000000       0.00000000 </v>
   <v>       0.00000000       0.00000000       0.00000000 </v>
   <v>       0.00000000       0.00000000       0.00000000 </v>
   <v>       0.00000000       0.00000000       0.00000000 </v>
   <v>       0.00000000       0.00000000       0.00000000 </v>
   <v>       0.00000000       0.00000000       0.00000000 </v>
   <v>       0.00000000       0.00000000       0.00000000 </v>
   <v>       0.00000000       0.00000000       0.00000000 </v>
   <v>       0.00000000       0.00000000       0.00000000 </v>
   <v>       0.00000000       0.00000000       0.00000000 </v>
   <v>       0.00000000       0.00000000       0.00000000 </v>
   <v>       0.00000000       0.00000000       0.00000000 </v>
   <v>       0.00000000       0.00000000       0.00000000 </v>
   <v>       0.00000000       0.00000000       0.00000000 </v>
   <v>       0.00000000       0.00000000       0.00000000 </v>
   <v>       0.00000000       0.00000000       0.00000000 </v>
   <v>       0.00000000       0.00000000       0.00000000 </v>
   <v>       0.00000000       0.00000000       0.00000000 </v>
   <v>       0.00000000       0.00000000       0.00000000 </v>
   <v>       0.00000000       0.00000000       0.00000000 </v>
   <v>       0.00000000       0.00000000       0.00000000 </v>
   <v>       0.00000000       0.00000000       0.00000000 </v>
   <v>       0.00000000       0.00000000       0.00000000 </v>
   <v>       0.00000000       0.00000000       0.00000000 </v>
   <v>       0.00000000       0.00000000       0.00000000 </v>
   <v>       0.00000000       0.00000000       0.00000000 </v>
   <v>       0.00000000       0.00000000       0.00000000 </v>
   <v>       0.00000000       0.00000000       0.00000000 </v>
   <v>       0.00000000       0.00000000       0.00000000 </v>
   <v>       0.00000000       0.00000000       0.00000000 </v>
   <v>       0.00000000       0.00000000       0.00000000 </v>
   <v>       0.00000000       0.00000000       0.00000000 </v>
   <v>       0.00000000       0.00000000       0.00000000 </v>
   <v>       0.00000000       0.00000000       0.00000000 </v>
   <v>       0.00000000       0.00000000       0.00000000 </v>
   <v>       0.00000000       0.00000000       0.00000000 </v>
   <v>       0.00000000       0.00000000       0.00000000 </v>
   <v>       0.00000000       0.00000000       0.00000000 </v>
   <v>       0.00000000       0.00000000       0.00000000 </v>
   <v>       0.00000000       0.00000000       0.00000000 </v>
   <v>       0.00000000       0.00000000       0.00000000 </v>
   <v>       0.00000000       0.00000000       0.00000000 </v>
   <v>       0.00000000       0.00000000       0.00000000 </v>
   <v>       0.00000000       0.00000000       0.00000000 </v>
   <v>       0.00000000       0.00000000       0.00000000 </v>
   <v>       0.00000000       0.00000000       0.00000000 </v>
   <v>       0.00000000       0.00000000       0.00000000 </v>
   <v>       0.00000000       0.00000000       0.00000000 </v>
   <v>       0.00000000       0.00000000       0.00000000 </v>
   <v>       0.00000000       0.00000000       0.00000000 </v>
   <v>       0.00000000       0.00000000       0.00000000 </v>
   <v>       0.00000000       0.00000000       0.00000000 </v>
   <v>       0.00000000       0.00000000       0.00000000 </v>
   <v>       0.00000000       0.00000000       0.00000000 </v>
   <v>       0.00000000       0.00000000       0.00000000 </v>
   <v>       0.00000000       0.00000000       0.00000000 </v>
   <v>       0.00000000       0.00000000       0.00000000 </v>
   <v>       0.00000000       0.00000000       0.00000000 </v>
   <v>       0.00000000       0.00000000       0.00000000 </v>
   <v>       0.00000000       0.00000000       0.00000000 </v>
   <v>       0.00000000       0.00000000       0.00000000 </v>
   <v>       0.00000000       0.00000000       0.00000000 </v>
   <v>       0.00000000       0.00000000       0.00000000 </v>
   <v>       0.00000000       0.00000000       0.00000000 </v>
   <v>       0.00000000       0.00000000       0.00000000 </v>
   <v>       0.00000000       0.00000000       0.00000000 </v>
   <v>       0.00000000       0.00000000       0.00000000 </v>
   <v>       0.00000000       0.00000000       0.00000000 </v>
   <v>       0.00000000       0.00000000       0.00000000 </v>
   <v>       0.00000000       0.00000000       0.00000000 </v>
   <v>       0.00000000       0.00000000       0.00000000 </v>
   <v>       0.00000000       0.00000000       0.00000000 </v>
   <v>       0.00000000       0.00000000       0.00000000 </v>
   <v>       0.00000000       0.00000000       0.00000000 </v>
   <v>       0.00000000       0.00000000       0.00000000 </v>
   <v>       0.00000000       0.00000000       0.00000000 </v>
   <v>       0.00024017      -0.00026368       0.00005484 </v>
   <v>      -0.00024065       0.00019056       0.00002282 </v>
   <v>      -0.00037360       0.00050766      -0.00004670 </v>
   <v>       0.00026525       0.00005958       0.00000893 </v>
   <v>      -0.00005826      -0.00026837       0.00003519 </v>
   <v>       0.00009855       0.00023042       0.00003823 </v>
   <v>       0.00023698      -0.00023430       0.00010212 </v>
   <v>      -0.00001772      -0.00008070       0.00005673 </v>
   <v>       0.00025147       0.00016322      -0.00000676 </v>
   <v>       0.00027420      -0.00003927       0.00000094 </v>
   <v>      -0.00004222       0.00004611       0.00000169 </v>
   <v>      -0.00009716       0.00008501       0.00002512 </v>
   <v>       0.00017600      -0.00025564      -0.00001057 </v>
   <v>      -0.00011792       0.00013565       0.00002011 </v>
   <v>       0.00011446      -0.00002529       0.00002926 </v>
   <v>       0.00026031       0.00013218      -0.00002989 </v>
   <v>       0.00027364      -0.00019315       0.00020371 </v>
   <v>       0.00009814      -0.00015532       0.00011302 </v>
   <v>       0.00022724      -0.00032737       0.00008267 </v>
   <v>       0.00005317      -0.00011614       0.00001297 </v>
   <v>      -0.00007111       0.00003139       0.00003189 </v>
   <v>      -0.00004056       0.00003843       0.00000923 </v>
   <v>      -0.00016232       0.00043237       0.00005193 </v>
   <v>       0.00013572       0.00012276       0.00004246 </v>
   <v>      -0.00016605       0.00010294      -0.00004453 </v>
   <v>       0.00005296       0.00006461       0.00004569 </v>
   <v>      -0.00017571      -0.00016790       0.00003296 </v>
   <v>       0.00013886       0.00004135       0.00002752 </v>
   <v>      -0.00004054      -0.00008359       0.00002270 </v>
   <v>       0.00010166      -0.00008478       0.00011239 </v>
   <v>       0.00010089      -0.00012386       0.00010205 </v>
   <v>      -0.00033112       0.00027196       0.00004356 </v>
   <v>       0.00011242      -0.00005830      -0.00002671 </v>
   <v>      -0.00000035      -0.00008780       0.00006131 </v>
   <v>      -0.00007632      -0.00005419       0.00010648 </v>
   <v>       0.00007009      -0.00005166      -0.00002187 </v>
   <v>      -0.00028481      -0.00003126       0.00000395 </v>
   <v>      -0.00010128       0.00011706       0.00009668 </v>
   <v>       0.00004207       0.00007807       0.00003574 </v>
   <v>       0.00015758      -0.00029015       0.00000835 </v>
   <v>       0.00027562      -0.00030230      -0.00005503 </v>
   <v>       0.00013844       0.00002760       0.00006202 </v>
   <v>       0.00001218      -0.00010264       0.00001354 </v>
   <v>      -0.00001492       0.00006368      -0.00003631 </v>
   <v>      -0.00026485       0.00011829       0.00000168 </v>
   <v>      -0.00028099      -0.00014584       0.00003959 </v>
   <v>       0.00016616      -0.00008105       0.00003561 </v>
   <v>       0.00009366       0.00003957      -0.00004355 </v>
   <v>      -0.00000274      -0.00016634       0.00003071 </v>
   <v>       0.00005597      -0.00013053       0.00007326 </v>
   <v>       0.00013418      -0.00007027       0.00002133 </v>
   <v>       0.00009150       0.00004163      -0.00000043 </v>
   <v>      -0.00014501       0.00023493      -0.00002859 </v>
   <v>      -0.00019561      -0.00001820       0.00003259 </v>
   <v>       0.00033465      -0.00018446      -0.00003970 </v>
   <v>       0.00002448      -0.00019368       0.00005908 </v>
   <v>      -0.00037998       0.00016550       0.00003875 </v>
   <v>      -0.00021437       0.00005923       0.00003093 </v>
   <v>       0.00022109      -0.00016005       0.00008779 </v>
   <v>       0.00000405      -0.00012437       0.00001982 </v>
   <v>      -0.00005004      -0.00022993       0.00005586 </v>
   <v>      -0.00004047      -0.00002095      -0.00001205 </v>
   <v>       0.00007473       0.00004977      -0.00002318 </v>
   <v>       0.00013498      -0.00004568       0.00000342 </v>
  </varray>
  <nose>
   <v>      -1.00000000       0.00000000     300.00000000     300.00000000 </v>
  </nose>
 </structure>
</modeling>
