<?xml version="1.0" encoding="ISO-8859-1"?>
<modeling>
 <generator>
  <i name="program" type="string">vasp </i>
  <i name="version" type="string">6.4.2  </i>
  <i name="subversion" type="string">20Jul23 (build Mar 19 2024 13:39:35) complex                          parallel </i>
  <i name="platform" type="string">LinuxIFC </i>
  <i name="date" type="string">2025 01 27 </i>
  <i name="time" type="string">05:59:28 </i>
 </generator>
 <incar>
  <i type="string" name="SYSTEM">Si_surface_6layer</i>
  <i type="string" name="PREC">Accurate</i>
  <i type="int" name="NELMIN">     5</i>
  <i type="int" name="IBRION">     0</i>
  <i name="EDIFF">      0.00010000</i>
  <i name="EDIFFG">     -0.00950000</i>
  <i type="int" name="NSW">   100</i>
  <i type="int" name="ISIF">     2</i>
  <i type="int" name="ISYM">     0</i>
  <i name="ENCUT">    540.00000000</i>
  <i type="int" name="NBANDS">   640</i>
  <i name="POTIM">      1.00000000</i>
  <i name="TEBEG">    300.00000000</i>
  <i name="SMASS">     -1.00000000</i>
  <i type="int" name="ISMEAR">     0</i>
  <i name="SIGMA">      0.01000000</i>
  <i type="int" name="NWRITE">     1</i>
  <i type="int" name="IDIPOL">     3</i>
  <i type="int" name="IVDW">    12</i>
  <i type="int" name="MDALGO">     2</i>
 </incar>
 <primitive_cell>
  <structure name="primitive_cell" >
   <crystal>
    <varray name="basis" >
     <v>      15.33298779       0.00000000       0.00000000 </v>
     <v>       7.66649389      13.27875694       0.00000000 </v>
     <v>       0.00000000       0.00000000      41.55799484 </v>
    </varray>
    <i name="volume">   8461.33316923 </i>
    <varray name="rec_basis" >
     <v>       0.06521886      -0.03765413       0.00000000 </v>
     <v>       0.00000000       0.07530825       0.00000000 </v>
     <v>       0.00000000       0.00000000       0.02406276 </v>
    </varray>
   </crystal>
   <varray name="positions" >
    <v>       0.50863515       0.50741892       0.57722604 </v>
    <v>       0.45580781       0.46128393       0.56532782 </v>
    <v>       0.55749321       0.54217550       0.55805533 </v>
    <v>       0.45105556       0.45518485       0.53001359 </v>
    <v>       0.50045528       0.48691189       0.50892161 </v>
    <v>       0.54989049       0.53561524       0.52292916 </v>
    <v>       0.60000909       0.59720173       0.57190541 </v>
    <v>       0.63876042       0.64329596       0.55298029 </v>
    <v>       0.63392489       0.63773051       0.51891820 </v>
    <v>       0.58979143       0.58947978       0.50512339 </v>
    <v>       0.40173773       0.42861678       0.58405987 </v>
    <v>       0.35617440       0.37885582       0.57107012 </v>
    <v>       0.35847366       0.36567737       0.53710580 </v>
    <v>       0.40154451       0.40376389       0.51759568 </v>
    <v>       0.39208436       0.44523630       0.61031370 </v>
    <v>       0.32415701       0.34270915       0.58519870 </v>
    <v>       0.32036829       0.32490199       0.52738019 </v>
    <v>       0.39710090       0.39389051       0.49190528 </v>
    <v>       0.51445592       0.51315690       0.60282920 </v>
    <v>       0.58701704       0.59107945       0.47961585 </v>
    <v>       0.67146076       0.66853284       0.50405451 </v>
    <v>       0.60631875       0.59677964       0.59791506 </v>
    <v>       0.67590772       0.68268936       0.56323774 </v>
    <v>       0.01140677       0.98905789       0.01999749 </v>
    <v>       0.48243439       0.01596033       0.02048947 </v>
    <v>       0.99719450       0.50879995       0.02211599 </v>
    <v>       0.50960378       0.48567319       0.01912792 </v>
    <v>       0.24091483       0.99743515       0.01935245 </v>
    <v>       0.75296484       0.99852163       0.01918542 </v>
    <v>       0.23987099       0.50949483       0.02037006 </v>
    <v>       0.76279842       0.48742116       0.02116529 </v>
    <v>       0.99536073       0.24758183       0.02120268 </v>
    <v>       0.49038451       0.24181405       0.02245775 </v>
    <v>       0.00025803       0.76045671       0.02149608 </v>
    <v>       0.51045170       0.73342359       0.02056937 </v>
    <v>       0.25989604       0.25052651       0.02045056 </v>
    <v>       0.75793465       0.24301316       0.02029221 </v>
    <v>       0.23927608       0.74446234       0.01945557 </v>
    <v>       0.72669653       0.75824766       0.02180483 </v>
    <v>       0.01262557       0.98659388       0.48508798 </v>
    <v>       0.48677797       0.99916107       0.48542719 </v>
    <v>       0.99094072       0.50979579       0.48771025 </v>
    <v>       0.25275244       0.99546612       0.48467069 </v>
    <v>       0.72836574       0.02781514       0.48492659 </v>
    <v>       0.23132063       0.50796999       0.48735807 </v>
    <v>       0.76642835       0.49543658       0.48284762 </v>
    <v>       0.98168640       0.26531683       0.48337703 </v>
    <v>       0.52519719       0.24127801       0.48443163 </v>
    <v>       0.00507038       0.75561344       0.48745713 </v>
    <v>       0.47334181       0.77775588       0.48336885 </v>
    <v>       0.23513138       0.26620027       0.48702648 </v>
    <v>       0.76138054       0.23651711       0.48612958 </v>
    <v>       0.23658457       0.77121678       0.48645156 </v>
    <v>       0.74900915       0.75853908       0.48573861 </v>
    <v>       0.00000000       0.00000000       0.05648431 </v>
    <v>       0.50000000       0.00000000       0.05648431 </v>
    <v>       0.00000000       0.50000000       0.05648431 </v>
    <v>       0.50000000       0.50000000       0.05648431 </v>
    <v>       0.25000000       0.00000000       0.05648431 </v>
    <v>       0.75000000       0.00000000       0.05648431 </v>
    <v>       0.25000000       0.50000000       0.05648431 </v>
    <v>       0.75000000       0.50000000       0.05648431 </v>
    <v>       0.00000000       0.25000000       0.05648431 </v>
    <v>       0.50000000       0.25000000       0.05648431 </v>
    <v>       0.00000000       0.75000000       0.05648431 </v>
    <v>       0.50000000       0.75000000       0.05648431 </v>
    <v>       0.25000000       0.25000000       0.05648431 </v>
    <v>       0.75000000       0.25000000       0.05648431 </v>
    <v>       0.25000000       0.75000000       0.05648431 </v>
    <v>       0.75000000       0.75000000       0.05648431 </v>
    <v>       0.83333331       0.83333331       0.07531242 </v>
    <v>       0.33333334       0.83333331       0.07531242 </v>
    <v>       0.83333331       0.33333334       0.07531242 </v>
    <v>       0.33333334       0.33333334       0.07531242 </v>
    <v>       0.08333334       0.83333331       0.07531242 </v>
    <v>       0.58333331       0.83333331       0.07531242 </v>
    <v>       0.08333334       0.33333334       0.07531242 </v>
    <v>       0.58333331       0.33333334       0.07531242 </v>
    <v>       0.83333331       0.08333334       0.07531242 </v>
    <v>       0.33333334       0.08333334       0.07531242 </v>
    <v>       0.83333331       0.58333331       0.07531242 </v>
    <v>       0.33333334       0.58333331       0.07531242 </v>
    <v>       0.08333334       0.08333334       0.07531242 </v>
    <v>       0.58333331       0.08333334       0.07531242 </v>
    <v>       0.08333334       0.58333331       0.07531242 </v>
    <v>       0.58333331       0.58333331       0.07531242 </v>
    <v>       0.83333331       0.83333331       0.13179672 </v>
    <v>       0.33333334       0.83333331       0.13179672 </v>
    <v>       0.83333331       0.33333334       0.13179672 </v>
    <v>       0.33333334       0.33333334       0.13179672 </v>
    <v>       0.08333334       0.83333331       0.13179672 </v>
    <v>       0.58333331       0.83333331       0.13179672 </v>
    <v>       0.08333334       0.33333334       0.13179672 </v>
    <v>       0.58333331       0.33333334       0.13179672 </v>
    <v>       0.83333331       0.08333334       0.13179672 </v>
    <v>       0.33333334       0.08333334       0.13179672 </v>
    <v>       0.83333331       0.58333331       0.13179672 </v>
    <v>       0.33333334       0.58333331       0.13179672 </v>
    <v>       0.08333334       0.08333334       0.13179672 </v>
    <v>       0.58333331       0.08333334       0.13179672 </v>
    <v>       0.08333334       0.58333331       0.13179672 </v>
    <v>       0.58333331       0.58333331       0.13179672 </v>
    <v>       0.66666669       0.66666669       0.15062483 </v>
    <v>       0.16666667       0.66666669       0.15062483 </v>
    <v>       0.66666669       0.16666667       0.15062483 </v>
    <v>       0.16666667       0.16666667       0.15062483 </v>
    <v>       0.91666669       0.66666669       0.15062483 </v>
    <v>       0.41666666       0.66666669       0.15062483 </v>
    <v>       0.91666669       0.16666667       0.15062483 </v>
    <v>       0.41666666       0.16666667       0.15062483 </v>
    <v>       0.66666669       0.91666669       0.15062483 </v>
    <v>       0.16666667       0.91666669       0.15062483 </v>
    <v>       0.66666669       0.41666666       0.15062483 </v>
    <v>       0.16666667       0.41666666       0.15062483 </v>
    <v>       0.91666669       0.91666669       0.15062483 </v>
    <v>       0.41666666       0.91666669       0.15062483 </v>
    <v>       0.91666669       0.41666666       0.15062483 </v>
    <v>       0.41666666       0.41666666       0.15062483 </v>
    <v>       0.66691256       0.66650248       0.20705401 </v>
    <v>       0.16691388       0.66649014       0.20705898 </v>
    <v>       0.66690344       0.16650572       0.20706598 </v>
    <v>       0.16684061       0.16660814       0.20708179 </v>
    <v>       0.91692531       0.66649854       0.20705918 </v>
    <v>       0.41692519       0.66647869       0.20706536 </v>
    <v>       0.91692513       0.16650243       0.20707472 </v>
    <v>       0.41696414       0.16651435       0.20706745 </v>
    <v>       0.66691798       0.91648233       0.20704251 </v>
    <v>       0.16694951       0.91644073       0.20704633 </v>
    <v>       0.66691595       0.41648963       0.20705459 </v>
    <v>       0.16692059       0.41647589       0.20705572 </v>
    <v>       0.91694874       0.91646326       0.20705239 </v>
    <v>       0.41701031       0.91640425       0.20704820 </v>
    <v>       0.91693836       0.41649175       0.20706076 </v>
    <v>       0.41692036       0.41647944       0.20706344 </v>
    <v>       0.50027961       0.49979386       0.22588077 </v>
    <v>       0.00028667       0.49982324       0.22588117 </v>
    <v>       0.50028664       0.99980050       0.22585523 </v>
    <v>       0.00032078       0.99976605       0.22586109 </v>
    <v>       0.75028151       0.49981755       0.22585415 </v>
    <v>       0.25025454       0.49979892       0.22586794 </v>
    <v>       0.75028825       0.99977207       0.22584361 </v>
    <v>       0.25032210       0.99981099       0.22577891 </v>
    <v>       0.50031888       0.74973106       0.22591362 </v>
    <v>       0.00028389       0.74979836       0.22589213 </v>
    <v>       0.50029421       0.24984773       0.22593303 </v>
    <v>       0.00016690       0.24989246       0.22594904 </v>
    <v>       0.75026935       0.74982309       0.22586657 </v>
    <v>       0.25028658       0.74977243       0.22589330 </v>
    <v>       0.75025457       0.24982803       0.22588789 </v>
    <v>       0.25034884       0.24982284       0.22589789 </v>
    <v>       0.50049311       0.49963021       0.28230625 </v>
    <v>       0.00050731       0.49968964       0.28230851 </v>
    <v>       0.50051337       0.99962586       0.28226964 </v>
    <v>       0.00059072       0.99956340       0.28227770 </v>
    <v>       0.75046229       0.49970725       0.28226706 </v>
    <v>       0.25044429       0.49965557       0.28228562 </v>
    <v>       0.75051129       0.99957675       0.28225109 </v>
    <v>       0.25060219       0.99960679       0.28215270 </v>
    <v>       0.50056702       0.74950278       0.28235546 </v>
    <v>       0.00050130       0.74963838       0.28232343 </v>
    <v>       0.50053847       0.24974354       0.28238247 </v>
    <v>       0.00022542       0.24985044       0.28240289 </v>
    <v>       0.75046211       0.74969256       0.28228702 </v>
    <v>       0.25051790       0.74957991       0.28232459 </v>
    <v>       0.75041085       0.24970731       0.28231667 </v>
    <v>       0.25066370       0.24970363       0.28232852 </v>
    <v>       0.33391163       0.33313787       0.30122887 </v>
    <v>       0.83340478       0.33325410       0.30123816 </v>
    <v>       0.33380580       0.83306384       0.30105916 </v>
    <v>       0.83384037       0.83295310       0.30113371 </v>
    <v>       0.58387220       0.33310598       0.30124070 </v>
    <v>       0.08398666       0.33295631       0.30108731 </v>
    <v>       0.58382905       0.83298177       0.30112000 </v>
    <v>       0.08388577       0.83291119       0.30115693 </v>
    <v>       0.33384538       0.58284026       0.30112975 </v>
    <v>       0.83381855       0.58302647       0.30109687 </v>
    <v>       0.33384517       0.08289958       0.30104594 </v>
    <v>       0.83388197       0.08288339       0.30102269 </v>
    <v>       0.58398402       0.58273447       0.30118588 </v>
    <v>       0.08386202       0.58297580       0.30116989 </v>
    <v>       0.58390039       0.08290785       0.30108313 </v>
    <v>       0.08406826       0.08289581       0.30098030 </v>
    <v>       0.33179444       0.33542253       0.35757460 </v>
    <v>       0.82526558       0.33494288       0.35819028 </v>
    <v>       0.33329706       0.83035401       0.35837422 </v>
    <v>       0.82411767       0.84010805       0.35679313 </v>
    <v>       0.58008712       0.33398869       0.35848861 </v>
    <v>       0.08484626       0.33148675       0.35700987 </v>
    <v>       0.58382981       0.82980590       0.35700902 </v>
    <v>       0.08127515       0.83176239       0.35729290 </v>
    <v>       0.32724627       0.58384667       0.35860746 </v>
    <v>       0.82926338       0.58695800       0.35627562 </v>
    <v>       0.33482775       0.08488403       0.35697300 </v>
    <v>       0.83818974       0.08164705       0.35644816 </v>
    <v>       0.57674527       0.58266705       0.36073649 </v>
    <v>       0.08096703       0.58568634       0.35666182 </v>
    <v>       0.57981399       0.08523705       0.35696399 </v>
    <v>       0.08512183       0.08726671       0.35760964 </v>
    <v>       0.17230117       0.16160901       0.37736269 </v>
    <v>       0.66979085       0.16510232       0.37365611 </v>
    <v>       0.16304989       0.66793713       0.37654601 </v>
    <v>       0.66209317       0.66558790       0.37627523 </v>
    <v>       0.41374778       0.17149616       0.37746844 </v>
    <v>       0.91997435       0.16683264       0.37332993 </v>
    <v>       0.41196646       0.65977522       0.38112373 </v>
    <v>       0.91090154       0.67322513       0.37682450 </v>
    <v>       0.16384146       0.41837075       0.37505581 </v>
    <v>       0.65949383       0.41924233       0.37977919 </v>
    <v>       0.16191194       0.91954404       0.37395093 </v>
    <v>       0.66114931       0.92155711       0.37515555 </v>
    <v>       0.41657620       0.41840574       0.37888653 </v>
    <v>       0.91598629       0.41875181       0.37268250 </v>
    <v>       0.41755020       0.91753068       0.37187545 </v>
    <v>       0.91383402       0.91554537       0.37510442 </v>
    <v>       0.16643461       0.17468787       0.43255848 </v>
    <v>       0.67273982       0.17110719       0.42956042 </v>
    <v>       0.15926938       0.67286096       0.43344478 </v>
    <v>       0.65699830       0.67413102       0.43223225 </v>
    <v>       0.41359123       0.16933152       0.43321325 </v>
    <v>       0.92306988       0.16841676       0.42966971 </v>
    <v>       0.42123392       0.65602581       0.43696045 </v>
    <v>       0.90873113       0.67423250       0.43259538 </v>
    <v>       0.16306916       0.42387969       0.43110996 </v>
    <v>       0.66191906       0.42338493       0.43689943 </v>
    <v>       0.17411436       0.91679881       0.42942167 </v>
    <v>       0.66513188       0.92649591       0.43043345 </v>
    <v>       0.41456762       0.41704536       0.43447870 </v>
    <v>       0.91921220       0.41231278       0.42760204 </v>
    <v>       0.41492615       0.91974600       0.42797988 </v>
    <v>       0.91816161       0.91893173       0.43148518 </v>
    <v>       0.00866269       0.00094020       0.44774954 </v>
    <v>       0.50001952       0.00111409       0.45025158 </v>
    <v>       0.99519491       0.50622309       0.45098010 </v>
    <v>       0.49438136       0.49232937       0.46173829 </v>
    <v>       0.24589465       0.00734488       0.44824600 </v>
    <v>       0.75219335       0.00710705       0.44904733 </v>
    <v>       0.24670496       0.50447768       0.45023073 </v>
    <v>       0.75738788       0.50048915       0.44659190 </v>
    <v>       0.99808358       0.25465842       0.44870132 </v>
    <v>       0.50633312       0.24317544       0.44880534 </v>
    <v>       0.99033175       0.75238536       0.44998705 </v>
    <v>       0.48943526       0.75800388       0.44793375 </v>
    <v>       0.25051634       0.25851186       0.45071795 </v>
    <v>       0.75660893       0.25135133       0.45074757 </v>
    <v>       0.25439418       0.75462926       0.45194663 </v>
    <v>       0.74124261       0.76030412       0.45049279 </v>
   </varray>
  </structure>
  <varray name="primitive_index" >
   <v type="int" >        1 </v>
   <v type="int" >        2 </v>
   <v type="int" >        3 </v>
   <v type="int" >        4 </v>
   <v type="int" >        5 </v>
   <v type="int" >        6 </v>
   <v type="int" >        7 </v>
   <v type="int" >        8 </v>
   <v type="int" >        9 </v>
   <v type="int" >       10 </v>
   <v type="int" >       11 </v>
   <v type="int" >       12 </v>
   <v type="int" >       13 </v>
   <v type="int" >       14 </v>
   <v type="int" >       15 </v>
   <v type="int" >       16 </v>
   <v type="int" >       17 </v>
   <v type="int" >       18 </v>
   <v type="int" >       19 </v>
   <v type="int" >       20 </v>
   <v type="int" >       21 </v>
   <v type="int" >       22 </v>
   <v type="int" >       23 </v>
   <v type="int" >       24 </v>
   <v type="int" >       25 </v>
   <v type="int" >       26 </v>
   <v type="int" >       27 </v>
   <v type="int" >       28 </v>
   <v type="int" >       29 </v>
   <v type="int" >       30 </v>
   <v type="int" >       31 </v>
   <v type="int" >       32 </v>
   <v type="int" >       33 </v>
   <v type="int" >       34 </v>
   <v type="int" >       35 </v>
   <v type="int" >       36 </v>
   <v type="int" >       37 </v>
   <v type="int" >       38 </v>
   <v type="int" >       39 </v>
   <v type="int" >       40 </v>
   <v type="int" >       41 </v>
   <v type="int" >       42 </v>
   <v type="int" >       43 </v>
   <v type="int" >       44 </v>
   <v type="int" >       45 </v>
   <v type="int" >       46 </v>
   <v type="int" >       47 </v>
   <v type="int" >       48 </v>
   <v type="int" >       49 </v>
   <v type="int" >       50 </v>
   <v type="int" >       51 </v>
   <v type="int" >       52 </v>
   <v type="int" >       53 </v>
   <v type="int" >       54 </v>
   <v type="int" >       55 </v>
   <v type="int" >       56 </v>
   <v type="int" >       57 </v>
   <v type="int" >       58 </v>
   <v type="int" >       59 </v>
   <v type="int" >       60 </v>
   <v type="int" >       61 </v>
   <v type="int" >       62 </v>
   <v type="int" >       63 </v>
   <v type="int" >       64 </v>
   <v type="int" >       65 </v>
   <v type="int" >       66 </v>
   <v type="int" >       67 </v>
   <v type="int" >       68 </v>
   <v type="int" >       69 </v>
   <v type="int" >       70 </v>
   <v type="int" >       71 </v>
   <v type="int" >       72 </v>
   <v type="int" >       73 </v>
   <v type="int" >       74 </v>
   <v type="int" >       75 </v>
   <v type="int" >       76 </v>
   <v type="int" >       77 </v>
   <v type="int" >       78 </v>
   <v type="int" >       79 </v>
   <v type="int" >       80 </v>
   <v type="int" >       81 </v>
   <v type="int" >       82 </v>
   <v type="int" >       83 </v>
   <v type="int" >       84 </v>
   <v type="int" >       85 </v>
   <v type="int" >       86 </v>
   <v type="int" >       87 </v>
   <v type="int" >       88 </v>
   <v type="int" >       89 </v>
   <v type="int" >       90 </v>
   <v type="int" >       91 </v>
   <v type="int" >       92 </v>
   <v type="int" >       93 </v>
   <v type="int" >       94 </v>
   <v type="int" >       95 </v>
   <v type="int" >       96 </v>
   <v type="int" >       97 </v>
   <v type="int" >       98 </v>
   <v type="int" >       99 </v>
   <v type="int" >      100 </v>
   <v type="int" >      101 </v>
   <v type="int" >      102 </v>
   <v type="int" >      103 </v>
   <v type="int" >      104 </v>
   <v type="int" >      105 </v>
   <v type="int" >      106 </v>
   <v type="int" >      107 </v>
   <v type="int" >      108 </v>
   <v type="int" >      109 </v>
   <v type="int" >      110 </v>
   <v type="int" >      111 </v>
   <v type="int" >      112 </v>
   <v type="int" >      113 </v>
   <v type="int" >      114 </v>
   <v type="int" >      115 </v>
   <v type="int" >      116 </v>
   <v type="int" >      117 </v>
   <v type="int" >      118 </v>
   <v type="int" >      119 </v>
   <v type="int" >      120 </v>
   <v type="int" >      121 </v>
   <v type="int" >      122 </v>
   <v type="int" >      123 </v>
   <v type="int" >      124 </v>
   <v type="int" >      125 </v>
   <v type="int" >      126 </v>
   <v type="int" >      127 </v>
   <v type="int" >      128 </v>
   <v type="int" >      129 </v>
   <v type="int" >      130 </v>
   <v type="int" >      131 </v>
   <v type="int" >      132 </v>
   <v type="int" >      133 </v>
   <v type="int" >      134 </v>
   <v type="int" >      135 </v>
   <v type="int" >      136 </v>
   <v type="int" >      137 </v>
   <v type="int" >      138 </v>
   <v type="int" >      139 </v>
   <v type="int" >      140 </v>
   <v type="int" >      141 </v>
   <v type="int" >      142 </v>
   <v type="int" >      143 </v>
   <v type="int" >      144 </v>
   <v type="int" >      145 </v>
   <v type="int" >      146 </v>
   <v type="int" >      147 </v>
   <v type="int" >      148 </v>
   <v type="int" >      149 </v>
   <v type="int" >      150 </v>
   <v type="int" >      151 </v>
   <v type="int" >      152 </v>
   <v type="int" >      153 </v>
   <v type="int" >      154 </v>
   <v type="int" >      155 </v>
   <v type="int" >      156 </v>
   <v type="int" >      157 </v>
   <v type="int" >      158 </v>
   <v type="int" >      159 </v>
   <v type="int" >      160 </v>
   <v type="int" >      161 </v>
   <v type="int" >      162 </v>
   <v type="int" >      163 </v>
   <v type="int" >      164 </v>
   <v type="int" >      165 </v>
   <v type="int" >      166 </v>
   <v type="int" >      167 </v>
   <v type="int" >      168 </v>
   <v type="int" >      169 </v>
   <v type="int" >      170 </v>
   <v type="int" >      171 </v>
   <v type="int" >      172 </v>
   <v type="int" >      173 </v>
   <v type="int" >      174 </v>
   <v type="int" >      175 </v>
   <v type="int" >      176 </v>
   <v type="int" >      177 </v>
   <v type="int" >      178 </v>
   <v type="int" >      179 </v>
   <v type="int" >      180 </v>
   <v type="int" >      181 </v>
   <v type="int" >      182 </v>
   <v type="int" >      183 </v>
   <v type="int" >      184 </v>
   <v type="int" >      185 </v>
   <v type="int" >      186 </v>
   <v type="int" >      187 </v>
   <v type="int" >      188 </v>
   <v type="int" >      189 </v>
   <v type="int" >      190 </v>
   <v type="int" >      191 </v>
   <v type="int" >      192 </v>
   <v type="int" >      193 </v>
   <v type="int" >      194 </v>
   <v type="int" >      195 </v>
   <v type="int" >      196 </v>
   <v type="int" >      197 </v>
   <v type="int" >      198 </v>
   <v type="int" >      199 </v>
   <v type="int" >      200 </v>
   <v type="int" >      201 </v>
   <v type="int" >      202 </v>
   <v type="int" >      203 </v>
   <v type="int" >      204 </v>
   <v type="int" >      205 </v>
   <v type="int" >      206 </v>
   <v type="int" >      207 </v>
   <v type="int" >      208 </v>
   <v type="int" >      209 </v>
   <v type="int" >      210 </v>
   <v type="int" >      211 </v>
   <v type="int" >      212 </v>
   <v type="int" >      213 </v>
   <v type="int" >      214 </v>
   <v type="int" >      215 </v>
   <v type="int" >      216 </v>
   <v type="int" >      217 </v>
   <v type="int" >      218 </v>
   <v type="int" >      219 </v>
   <v type="int" >      220 </v>
   <v type="int" >      221 </v>
   <v type="int" >      222 </v>
   <v type="int" >      223 </v>
   <v type="int" >      224 </v>
   <v type="int" >      225 </v>
   <v type="int" >      226 </v>
   <v type="int" >      227 </v>
   <v type="int" >      228 </v>
   <v type="int" >      229 </v>
   <v type="int" >      230 </v>
   <v type="int" >      231 </v>
   <v type="int" >      232 </v>
   <v type="int" >      233 </v>
   <v type="int" >      234 </v>
   <v type="int" >      235 </v>
   <v type="int" >      236 </v>
   <v type="int" >      237 </v>
   <v type="int" >      238 </v>
   <v type="int" >      239 </v>
   <v type="int" >      240 </v>
   <v type="int" >      241 </v>
   <v type="int" >      242 </v>
   <v type="int" >      243 </v>
   <v type="int" >      244 </v>
   <v type="int" >      245 </v>
   <v type="int" >      246 </v>
  </varray>
 </primitive_cell>
 <kpoints>
  <generation param="Gamma">
   <v type="int" name="divisions">       3        3        1 </v>
   <v name="usershift">      0.00000000       0.00000000       0.00000000 </v>
   <v name="genvec1">      0.33333333       0.00000000       0.00000000 </v>
   <v name="genvec2">      0.00000000       0.33333333       0.00000000 </v>
   <v name="genvec3">      0.00000000       0.00000000       1.00000000 </v>
   <v name="shift">      0.00000000       0.00000000       0.00000000 </v>
  </generation>
  <varray name="kpointlist" >
   <v>       0.00000000       0.00000000       0.00000000 </v>
   <v>       0.33333333       0.00000000       0.00000000 </v>
   <v>       0.33333333       0.33333333       0.00000000 </v>
   <v>       0.00000000       0.33333333       0.00000000 </v>
   <v>      -0.33333333       0.33333333       0.00000000 </v>
  </varray>
  <varray name="weights" >
   <v>       0.11111111 </v>
   <v>       0.22222222 </v>
   <v>       0.22222222 </v>
   <v>       0.22222222 </v>
   <v>       0.22222222 </v>
  </varray>
 </kpoints>
 <parameters>
  <separator name="general" >
   <i type="string" name="SYSTEM">Si_surface_6layer</i>
   <i type="logical" name="LCOMPAT"> F  </i>
  </separator>
  <separator name="electronic" >
   <i type="string" name="PREC">accura</i>
   <i name="ENMAX">    540.00000000</i>
   <i name="ENAUG">    644.87300000</i>
   <i name="EDIFF">      0.00010000</i>
   <i type="int" name="IALGO">    38</i>
   <i type="int" name="IWAVPR">    12</i>
   <i type="int" name="NBANDS">   640</i>
   <i type="int" name="NBANDSLOW">    -1</i>
   <i type="int" name="NBANDSHIGH">    -1</i>
   <i name="NELECT">    864.00000000</i>
   <i type="int" name="TURBO">     0</i>
   <i type="int" name="IRESTART">     0</i>
   <i type="int" name="NREBOOT">     0</i>
   <i type="int" name="NMIN">     0</i>
   <i name="EREF">      0.00000000</i>
   <separator name="electronic smearing" >
    <i type="int" name="ISMEAR">     0</i>
    <i name="SIGMA">      0.01000000</i>
    <i name="KSPACING">      0.50000000</i>
    <i type="logical" name="KGAMMA"> T  </i>
    <i type="logical" name="KBLOWUP"> T  </i>
   </separator>
   <separator name="electronic projectors" >
    <i type="logical" name="LREAL"> F  </i>
    <v name="ROPT">      0.00000000      0.00000000      0.00000000</v>
    <i type="int" name="LMAXPAW">  -100</i>
    <i type="int" name="LMAXMIX">     2</i>
    <i type="logical" name="NLSPLINE"> F  </i>
   </separator>
   <separator name="electronic startup" >
    <i type="int" name="ISTART">     0</i>
    <i type="int" name="ICHARG">     2</i>
    <i type="int" name="INIWAV">     1</i>
   </separator>
   <separator name="electronic spin" >
    <i type="int" name="ISPIN">     1</i>
    <i type="logical" name="LNONCOLLINEAR"> F  </i>
    <v name="MAGMOM">      1.00000000      1.00000000      1.00000000      1.00000000      1.00000000      1.00000000      1.00000000      1.00000000      1.00000000      1.00000000      1.00000000      1.00000000      1.00000000      1.00000000      1.00000000      1.00000000      1.00000000      1.00000000      1.00000000      1.00000000
      1.00000000      1.00000000      1.00000000      1.00000000      1.00000000      1.00000000      1.00000000      1.00000000      1.00000000      1.00000000      1.00000000      1.00000000      1.00000000      1.00000000      1.00000000      1.00000000      1.00000000      1.00000000      1.00000000      1.00000000
      1.00000000      1.00000000      1.00000000      1.00000000      1.00000000      1.00000000      1.00000000      1.00000000      1.00000000      1.00000000      1.00000000      1.00000000      1.00000000      1.00000000      1.00000000      1.00000000      1.00000000      1.00000000      1.00000000      1.00000000
      1.00000000      1.00000000      1.00000000      1.00000000      1.00000000      1.00000000      1.00000000      1.00000000      1.00000000      1.00000000      1.00000000      1.00000000      1.00000000      1.00000000      1.00000000      1.00000000      1.00000000      1.00000000      1.00000000      1.00000000
      1.00000000      1.00000000      1.00000000      1.00000000      1.00000000      1.00000000      1.00000000      1.00000000      1.00000000      1.00000000      1.00000000      1.00000000      1.00000000      1.00000000      1.00000000      1.00000000      1.00000000      1.00000000      1.00000000      1.00000000
      1.00000000      1.00000000      1.00000000      1.00000000      1.00000000      1.00000000      1.00000000      1.00000000      1.00000000      1.00000000      1.00000000      1.00000000      1.00000000      1.00000000      1.00000000      1.00000000      1.00000000      1.00000000      1.00000000      1.00000000
      1.00000000      1.00000000      1.00000000      1.00000000      1.00000000      1.00000000      1.00000000      1.00000000      1.00000000      1.00000000      1.00000000      1.00000000      1.00000000      1.00000000      1.00000000      1.00000000      1.00000000      1.00000000      1.00000000      1.00000000
      1.00000000      1.00000000      1.00000000      1.00000000      1.00000000      1.00000000      1.00000000      1.00000000      1.00000000      1.00000000      1.00000000      1.00000000      1.00000000      1.00000000      1.00000000      1.00000000      1.00000000      1.00000000      1.00000000      1.00000000
      1.00000000      1.00000000      1.00000000      1.00000000      1.00000000      1.00000000      1.00000000      1.00000000      1.00000000      1.00000000      1.00000000      1.00000000      1.00000000      1.00000000      1.00000000      1.00000000      1.00000000      1.00000000      1.00000000      1.00000000
      1.00000000      1.00000000      1.00000000      1.00000000      1.00000000      1.00000000      1.00000000      1.00000000      1.00000000      1.00000000      1.00000000      1.00000000      1.00000000      1.00000000      1.00000000      1.00000000      1.00000000      1.00000000      1.00000000      1.00000000
      1.00000000      1.00000000      1.00000000      1.00000000      1.00000000      1.00000000      1.00000000      1.00000000      1.00000000      1.00000000      1.00000000      1.00000000      1.00000000      1.00000000      1.00000000      1.00000000      1.00000000      1.00000000      1.00000000      1.00000000
      1.00000000      1.00000000      1.00000000      1.00000000      1.00000000      1.00000000      1.00000000      1.00000000      1.00000000      1.00000000      1.00000000      1.00000000      1.00000000      1.00000000      1.00000000      1.00000000      1.00000000      1.00000000      1.00000000      1.00000000
      1.00000000      1.00000000      1.00000000      1.00000000      1.00000000      1.00000000</v>
    <i name="NUPDOWN">     -1.00000000</i>
    <i type="logical" name="LSORBIT"> F  </i>
    <v name="SAXIS">      0.00000000      0.00000000      1.00000000</v>
    <i type="logical" name="LSPIRAL"> F  </i>
    <v name="QSPIRAL">      0.00000000      0.00000000      0.00000000</v>
    <i type="logical" name="LZEROZ"> F  </i>
   </separator>
   <separator name="electronic exchange-correlation" >
    <i type="logical" name="LASPH"> F  </i>
    <i type="logical" name="LMETAGGA"> F  </i>
   </separator>
   <separator name="electronic convergence" >
    <i type="int" name="NELM">    60</i>
    <i type="int" name="NELMDL">    -5</i>
    <i type="int" name="NELMIN">     5</i>
    <i name="ENINI">    540.00000000</i>
    <separator name="electronic convergence detail" >
     <i type="logical" name="LDIAG"> T  </i>
     <i type="logical" name="LSUBROT"> F  </i>
     <i name="WEIMIN">      0.00100000</i>
     <i name="EBREAK">      0.00000004</i>
     <i name="DEPER">      0.30000000</i>
     <i type="int" name="NRMM">     4</i>
     <i name="TIME">      0.40000000</i>
    </separator>
   </separator>
   <separator name="electronic mixer" >
    <i name="AMIX">      0.40000000</i>
    <i name="BMIX">      1.00000000</i>
    <i name="AMIN">      0.10000000</i>
    <i name="AMIX_MAG">      1.60000000</i>
    <i name="BMIX_MAG">      1.00000000</i>
    <separator name="electronic mixer details" >
     <i type="int" name="IMIX">     4</i>
     <i type="logical" name="MIXFIRST"> F  </i>
     <i type="int" name="MAXMIX">   -45</i>
     <i name="WC">    100.00000000</i>
     <i type="int" name="INIMIX">     1</i>
     <i type="int" name="MIXPRE">     1</i>
     <i type="int" name="MREMOVE">     5</i>
    </separator>
   </separator>
   <separator name="electronic dipolcorrection" >
    <i type="logical" name="LDIPOL"> F  </i>
    <i type="logical" name="LMONO"> F  </i>
    <i type="int" name="IDIPOL">     3</i>
    <i name="EPSILON">      1.00000000</i>
    <v name="DIPOL">   -100.00000000   -100.00000000   -100.00000000</v>
    <i name="EFIELD">      0.00000000</i>
   </separator>
  </separator>
  <separator name="grids" >
   <i type="int" name="NGX">   120</i>
   <i type="int" name="NGY">   120</i>
   <i type="int" name="NGZ">   320</i>
   <i type="int" name="NGXF">   240</i>
   <i type="int" name="NGYF">   240</i>
   <i type="int" name="NGZF">   640</i>
   <i type="logical" name="ADDGRID"> F  </i>
  </separator>
  <separator name="ionic" >
   <i type="int" name="NSW">   100</i>
   <i type="int" name="IBRION">     0</i>
   <i type="int" name="MDALGO">     2</i>
   <i type="int" name="ISIF">     2</i>
   <i name="PSTRESS">      0.00000000</i>
   <i name="EDIFFG">     -0.00950000</i>
   <i type="int" name="NFREE">     0</i>
   <i name="POTIM">      1.00000000</i>
   <i name="SMASS">     -1.00000000</i>
   <i name="SCALEE">      1.00000000</i>
  </separator>
  <separator name="ionic md" >
   <i name="TEBEG">    300.00000000</i>
   <i name="TEEND">    300.00000000</i>
   <i type="int" name="NBLOCK">     1</i>
   <i type="int" name="KBLOCK">   100</i>
   <i type="int" name="NPACO">   256</i>
   <i name="APACO">     10.00000000</i>
  </separator>
  <separator name="symmetry" >
   <i type="int" name="ISYM">     0</i>
   <i name="SYMPREC">      0.00001000</i>
  </separator>
  <separator name="dos" >
   <i type="int" name="LORBIT">     0</i>
   <v name="RWIGS">     -1.00000000     -1.00000000     -1.00000000</v>
   <i type="int" name="NEDOS">   301</i>
   <i name="EMIN">     10.00000000</i>
   <i name="EMAX">    -10.00000000</i>
   <i name="EFERMI">      0.00000000</i>
  </separator>
  <separator name="writing" >
   <i type="int" name="NWRITE">     1</i>
   <i type="logical" name="LWAVE"> T  </i>
   <i type="logical" name="LDOWNSAMPLE"> F  </i>
   <i type="logical" name="LCHARG"> T  </i>
   <i type="logical" name="LPARD"> F  </i>
   <i type="logical" name="LVTOT"> F  </i>
   <i type="logical" name="LVHAR"> F  </i>
   <i type="logical" name="LELF"> F  </i>
   <i type="logical" name="LOPTICS"> F  </i>
   <v name="STM">      0.00000000      0.00000000      0.00000000      0.00000000      0.00000000      0.00000000      0.00000000</v>
  </separator>
  <separator name="performance" >
   <i type="int" name="NPAR">     8</i>
   <i type="int" name="NSIM">     4</i>
   <i type="int" name="NBLK">    -1</i>
   <i type="logical" name="LPLANE"> T  </i>
   <i type="logical" name="LSCALAPACK"> T  </i>
   <i type="logical" name="LSCAAWARE"> F  </i>
   <i type="logical" name="LSCALU"> F  </i>
   <i type="logical" name="LASYNC"> F  </i>
   <i type="logical" name="LORBITALREAL"> F  </i>
  </separator>
  <separator name="miscellaneous" >
   <i type="int" name="IDIOT">     3</i>
   <i type="int" name="PHON_NSTRUCT">    -1</i>
   <i type="logical" name="LMUSIC"> F  </i>
   <v name="POMASS">     12.01100000      1.00000000     28.08500000</v>
   <v name="DARWINR">      0.00000000      0.00000000      0.00000000</v>
   <v name="DARWINV">      1.00000000      1.00000000      1.00000000</v>
   <i type="logical" name="LCORR"> T  </i>
  </separator>
  <i type="logical" name="GGA_COMPAT"> T  </i>
  <i type="logical" name="LBERRY"> F  </i>
  <i type="int" name="ICORELEVEL">     0</i>
  <i type="logical" name="LDAU"> F  </i>
  <i type="int" name="I_CONSTRAINED_M">     0</i>
  <separator name="electronic exchange-correlation" >
   <i type="string" name="GGA">--</i>
   <i type="int" name="VOSKOWN">     0</i>
   <i type="logical" name="LHFCALC"> F  </i>
   <i type="string" name="PRECFOCK"></i>
   <i type="logical" name="LSYMGRAD"> F  </i>
   <i type="logical" name="LHFONE"> F  </i>
   <i type="logical" name="LRHFCALC"> F  </i>
   <i type="logical" name="LTHOMAS"> F  </i>
   <i type="logical" name="LMODELHF"> F  </i>
   <i type="logical" name="LFOCKACE"> F  </i>
   <i name="ENCUT4O">     -1.00000000</i>
   <i type="int" name="EXXOEP">     0</i>
   <i type="int" name="FOURORBIT">     0</i>
   <i name="AEXX">      0.00000000</i>
   <i name="HFALPHA">      0.00000000</i>
   <i name="MCALPHA">      0.00000000</i>
   <i name="ALDAX">      1.00000000</i>
   <i name="AGGAX">      1.00000000</i>
   <i name="ALDAC">      1.00000000</i>
   <i name="AGGAC">      1.00000000</i>
   <i type="int" name="NKREDX">     1</i>
   <i type="int" name="NKREDY">     1</i>
   <i type="int" name="NKREDZ">     1</i>
   <i type="logical" name="SHIFTRED"> F  </i>
   <i type="logical" name="ODDONLY"> F  </i>
   <i type="logical" name="EVENONLY"> F  </i>
   <i type="int" name="LMAXFOCK">     0</i>
   <i type="int" name="NMAXFOCKAE">     0</i>
   <i type="logical" name="LFOCKAEDFT"> F  </i>
   <i name="HFSCREEN">      0.00000000</i>
   <i name="HFSCREENC">      0.00000000</i>
   <i type="int" name="NBANDSGWLOW">     0</i>
  </separator>
  <separator name="vdW DFT" >
   <i type="logical" name="LUSE_VDW"> F  </i>
   <i type="int" name="IVDW_NL">     1</i>
   <i type="logical" name="LSPIN_VDW"> F  </i>
   <i name="Zab_VDW">     -0.84910000</i>
   <i name="PARAM1">      0.12340000</i>
   <i name="PARAM2">      1.00000000</i>
   <i name="PARAM3">      0.00000000</i>
  </separator>
  <separator name="model GW" >
   <i type="int" name="MODEL_GW">     0</i>
   <i name="MODEL_EPS0">     20.63739797</i>
   <i name="MODEL_ALPHA">      1.00000000</i>
  </separator>
  <separator name="linear response parameters" >
   <i type="logical" name="LEPSILON"> F  </i>
   <i type="logical" name="LRPA"> F  </i>
   <i type="logical" name="LNABLA"> F  </i>
   <i type="logical" name="LVEL"> F  </i>
   <i name="CSHIFT">      0.10000000</i>
   <i name="OMEGAMAX">     -1.00000000</i>
   <i name="DEG_THRESHOLD">      0.00200000</i>
   <i name="RTIME">     -0.10000000</i>
   <i name="WPLASMAI">      0.00000000</i>
   <v name="DFIELD">      0.00000000      0.00000000      0.00000000</v>
   <v name="WPLASMA">      0.00000000      0.00000000      0.00000000      0.00000000      0.00000000      0.00000000      0.00000000      0.00000000      0.00000000</v>
  </separator>
  <separator name="orbital magnetization" >
   <i type="logical" name="NUCIND"> F  </i>
   <v name="MAGPOS">      0.00000000      0.00000000      0.00000000</v>
   <i type="logical" name="LNICSALL"> T  </i>
   <i type="logical" name="ORBITALMAG"> F  </i>
   <i type="logical" name="LMAGBLOCH"> F  </i>
   <i type="logical" name="LCHIMAG"> F  </i>
   <i type="logical" name="LGAUGE"> T  </i>
   <i type="int" name="MAGATOM">     0</i>
   <v name="MAGDIPOL">      0.00000000      0.00000000      0.00000000</v>
   <v name="AVECCONST">      0.00000000      0.00000000      0.00000000</v>
  </separator>
  <separator name="response functions" >
   <i type="logical" name="LALL_IN_ONE"> F  </i>
   <i type="int" name="IALL_IN_ONE">    -1</i>
   <i type="int" name="NBANDS_WAVE">    -1</i>
   <i type="logical" name="LFINITE_TEMPERATURE"> F  </i>
   <i type="logical" name="LADDER"> F  </i>
   <i type="logical" name="LRPAFORCE"> F  </i>
   <i type="logical" name="LFXC"> F  </i>
   <i type="logical" name="LHARTREE"> T  </i>
   <i type="int" name="IBSE">     0</i>
   <v type="int" name="KPOINT">    -1     0     0     0</v>
   <i type="logical" name="LTCTC"> F  </i>
   <i type="logical" name="LTCTE"> F  </i>
   <i type="logical" name="LTETE"> F  </i>
   <i type="logical" name="LTRIPLET"> F  </i>
   <i type="logical" name="LFXCEPS"> F  </i>
   <i type="logical" name="LFXHEG"> F  </i>
   <i type="int" name="NATURALO">     2</i>
   <i type="logical" name="LHOLEGF"> F  </i>
   <i type="logical" name="L2ORDER"> F  </i>
   <i type="logical" name="LDMP1"> F  </i>
   <i type="logical" name="LMP2LT"> F  </i>
   <i type="logical" name="LSMP2LT"> F  </i>
   <i type="logical" name="LGWLF"> F  </i>
   <i name="ENCUTGW">     -1.60000002</i>
   <i name="ENCUTGWSOFT">     -1.60000002</i>
   <i name="ENCUTLF">     -1.00000000</i>
   <i type="logical" name="LESF_SPLINES"> F  </i>
   <i type="int" name="LMAXMP2">    -1</i>
   <i name="SCISSOR">      0.00000000</i>
   <i type="int" name="NOMEGA">     0</i>
   <i type="int" name="NOMEGAR">     0</i>
   <i type="int" name="NBANDSGW">    -1</i>
   <i type="int" name="NBANDSO">    -1</i>
   <i type="int" name="NBANDSV">    -1</i>
   <i type="int" name="NELMGW">     1</i>
   <i type="int" name="NELMHF">     1</i>
   <i type="int" name="DIM">     3</i>
   <i type="int" name="IESPILON">     4</i>
   <i type="int" name="ANTIRES">     0</i>
   <i name="OMEGAMAX">    -30.00000000</i>
   <i name="OMEGAMIN">    -30.00000000</i>
   <i name="OMEGATL">   -200.00000000</i>
   <i type="int" name="OMEGAGRID">     0</i>
   <i name="CSHIFT">     -0.10000000</i>
   <i type="logical" name="LSELFENERGY"> F  </i>
   <i type="logical" name="LSPECTRAL"> F  </i>
   <i type="logical" name="LSPECTRALGW"> F  </i>
   <i type="logical" name="LSINGLES"> F  </i>
   <i type="logical" name="LFERMIGW"> F  </i>
   <i type="logical" name="ODDONLYGW"> F  </i>
   <i type="logical" name="EVENONLYGW"> F  </i>
   <i type="int" name="NKREDLFX">     1</i>
   <i type="int" name="NKREDLFY">     1</i>
   <i type="int" name="NKREDLFZ">     1</i>
   <i type="int" name="MAXMEM">  2800</i>
   <i type="int" name="TELESCOPE">     0</i>
   <i type="int" name="NTAUPAR">    -1</i>
   <i type="int" name="NOMEGAPAR">    -1</i>
   <i name="DAMP_NEWTON">      0.80000001</i>
   <i name="LAMBDA">      1.00000000</i>
  </separator>
  <separator name="External order field" >
   <i name="OFIELD_KAPPA">      0.00000000</i>
   <v name="OFIELD_K">      0.00000000      0.00000000      0.00000000</v>
   <i name="OFIELD_Q6_NEAR">      0.00000000</i>
   <i name="OFIELD_Q6_FAR">      0.00000000</i>
   <i name="OFIELD_A">      0.00000000</i>
  </separator>
  <separator name="optional k-points parameters" >
   <i type="int" name="KPOINTS_OPT_MODE">     1</i>
   <i type="logical" name="LKPOINTS_OPT"> F  </i>
  </separator>
 </parameters>
 <atominfo>
  <atoms>     246 </atoms>
  <types>       3 </types>
  <array name="atoms" >
   <dimension dim="1">ion</dimension>
   <field type="string">element</field>
   <field type="int">atomtype</field>
   <set>
    <rc><c>C </c><c>   1</c></rc>
    <rc><c>C </c><c>   1</c></rc>
    <rc><c>C </c><c>   1</c></rc>
    <rc><c>C </c><c>   1</c></rc>
    <rc><c>C </c><c>   1</c></rc>
    <rc><c>C </c><c>   1</c></rc>
    <rc><c>C </c><c>   1</c></rc>
    <rc><c>C </c><c>   1</c></rc>
    <rc><c>C </c><c>   1</c></rc>
    <rc><c>C </c><c>   1</c></rc>
    <rc><c>C </c><c>   1</c></rc>
    <rc><c>C </c><c>   1</c></rc>
    <rc><c>C </c><c>   1</c></rc>
    <rc><c>C </c><c>   1</c></rc>
    <rc><c>H </c><c>   2</c></rc>
    <rc><c>H </c><c>   2</c></rc>
    <rc><c>H </c><c>   2</c></rc>
    <rc><c>H </c><c>   2</c></rc>
    <rc><c>H </c><c>   2</c></rc>
    <rc><c>H </c><c>   2</c></rc>
    <rc><c>H </c><c>   2</c></rc>
    <rc><c>H </c><c>   2</c></rc>
    <rc><c>H </c><c>   2</c></rc>
    <rc><c>H </c><c>   2</c></rc>
    <rc><c>H </c><c>   2</c></rc>
    <rc><c>H </c><c>   2</c></rc>
    <rc><c>H </c><c>   2</c></rc>
    <rc><c>H </c><c>   2</c></rc>
    <rc><c>H </c><c>   2</c></rc>
    <rc><c>H </c><c>   2</c></rc>
    <rc><c>H </c><c>   2</c></rc>
    <rc><c>H </c><c>   2</c></rc>
    <rc><c>H </c><c>   2</c></rc>
    <rc><c>H </c><c>   2</c></rc>
    <rc><c>H </c><c>   2</c></rc>
    <rc><c>H </c><c>   2</c></rc>
    <rc><c>H </c><c>   2</c></rc>
    <rc><c>H </c><c>   2</c></rc>
    <rc><c>H </c><c>   2</c></rc>
    <rc><c>H </c><c>   2</c></rc>
    <rc><c>H </c><c>   2</c></rc>
    <rc><c>H </c><c>   2</c></rc>
    <rc><c>H </c><c>   2</c></rc>
    <rc><c>H </c><c>   2</c></rc>
    <rc><c>H </c><c>   2</c></rc>
    <rc><c>H </c><c>   2</c></rc>
    <rc><c>H </c><c>   2</c></rc>
    <rc><c>H </c><c>   2</c></rc>
    <rc><c>H </c><c>   2</c></rc>
    <rc><c>H </c><c>   2</c></rc>
    <rc><c>H </c><c>   2</c></rc>
    <rc><c>H </c><c>   2</c></rc>
    <rc><c>H </c><c>   2</c></rc>
    <rc><c>H </c><c>   2</c></rc>
    <rc><c>Si</c><c>   3</c></rc>
    <rc><c>Si</c><c>   3</c></rc>
    <rc><c>Si</c><c>   3</c></rc>
    <rc><c>Si</c><c>   3</c></rc>
    <rc><c>Si</c><c>   3</c></rc>
    <rc><c>Si</c><c>   3</c></rc>
    <rc><c>Si</c><c>   3</c></rc>
    <rc><c>Si</c><c>   3</c></rc>
    <rc><c>Si</c><c>   3</c></rc>
    <rc><c>Si</c><c>   3</c></rc>
    <rc><c>Si</c><c>   3</c></rc>
    <rc><c>Si</c><c>   3</c></rc>
    <rc><c>Si</c><c>   3</c></rc>
    <rc><c>Si</c><c>   3</c></rc>
    <rc><c>Si</c><c>   3</c></rc>
    <rc><c>Si</c><c>   3</c></rc>
    <rc><c>Si</c><c>   3</c></rc>
    <rc><c>Si</c><c>   3</c></rc>
    <rc><c>Si</c><c>   3</c></rc>
    <rc><c>Si</c><c>   3</c></rc>
    <rc><c>Si</c><c>   3</c></rc>
    <rc><c>Si</c><c>   3</c></rc>
    <rc><c>Si</c><c>   3</c></rc>
    <rc><c>Si</c><c>   3</c></rc>
    <rc><c>Si</c><c>   3</c></rc>
    <rc><c>Si</c><c>   3</c></rc>
    <rc><c>Si</c><c>   3</c></rc>
    <rc><c>Si</c><c>   3</c></rc>
    <rc><c>Si</c><c>   3</c></rc>
    <rc><c>Si</c><c>   3</c></rc>
    <rc><c>Si</c><c>   3</c></rc>
    <rc><c>Si</c><c>   3</c></rc>
    <rc><c>Si</c><c>   3</c></rc>
    <rc><c>Si</c><c>   3</c></rc>
    <rc><c>Si</c><c>   3</c></rc>
    <rc><c>Si</c><c>   3</c></rc>
    <rc><c>Si</c><c>   3</c></rc>
    <rc><c>Si</c><c>   3</c></rc>
    <rc><c>Si</c><c>   3</c></rc>
    <rc><c>Si</c><c>   3</c></rc>
    <rc><c>Si</c><c>   3</c></rc>
    <rc><c>Si</c><c>   3</c></rc>
    <rc><c>Si</c><c>   3</c></rc>
    <rc><c>Si</c><c>   3</c></rc>
    <rc><c>Si</c><c>   3</c></rc>
    <rc><c>Si</c><c>   3</c></rc>
    <rc><c>Si</c><c>   3</c></rc>
    <rc><c>Si</c><c>   3</c></rc>
    <rc><c>Si</c><c>   3</c></rc>
    <rc><c>Si</c><c>   3</c></rc>
    <rc><c>Si</c><c>   3</c></rc>
    <rc><c>Si</c><c>   3</c></rc>
    <rc><c>Si</c><c>   3</c></rc>
    <rc><c>Si</c><c>   3</c></rc>
    <rc><c>Si</c><c>   3</c></rc>
    <rc><c>Si</c><c>   3</c></rc>
    <rc><c>Si</c><c>   3</c></rc>
    <rc><c>Si</c><c>   3</c></rc>
    <rc><c>Si</c><c>   3</c></rc>
    <rc><c>Si</c><c>   3</c></rc>
    <rc><c>Si</c><c>   3</c></rc>
    <rc><c>Si</c><c>   3</c></rc>
    <rc><c>Si</c><c>   3</c></rc>
    <rc><c>Si</c><c>   3</c></rc>
    <rc><c>Si</c><c>   3</c></rc>
    <rc><c>Si</c><c>   3</c></rc>
    <rc><c>Si</c><c>   3</c></rc>
    <rc><c>Si</c><c>   3</c></rc>
    <rc><c>Si</c><c>   3</c></rc>
    <rc><c>Si</c><c>   3</c></rc>
    <rc><c>Si</c><c>   3</c></rc>
    <rc><c>Si</c><c>   3</c></rc>
    <rc><c>Si</c><c>   3</c></rc>
    <rc><c>Si</c><c>   3</c></rc>
    <rc><c>Si</c><c>   3</c></rc>
    <rc><c>Si</c><c>   3</c></rc>
    <rc><c>Si</c><c>   3</c></rc>
    <rc><c>Si</c><c>   3</c></rc>
    <rc><c>Si</c><c>   3</c></rc>
    <rc><c>Si</c><c>   3</c></rc>
    <rc><c>Si</c><c>   3</c></rc>
    <rc><c>Si</c><c>   3</c></rc>
    <rc><c>Si</c><c>   3</c></rc>
    <rc><c>Si</c><c>   3</c></rc>
    <rc><c>Si</c><c>   3</c></rc>
    <rc><c>Si</c><c>   3</c></rc>
    <rc><c>Si</c><c>   3</c></rc>
    <rc><c>Si</c><c>   3</c></rc>
    <rc><c>Si</c><c>   3</c></rc>
    <rc><c>Si</c><c>   3</c></rc>
    <rc><c>Si</c><c>   3</c></rc>
    <rc><c>Si</c><c>   3</c></rc>
    <rc><c>Si</c><c>   3</c></rc>
    <rc><c>Si</c><c>   3</c></rc>
    <rc><c>Si</c><c>   3</c></rc>
    <rc><c>Si</c><c>   3</c></rc>
    <rc><c>Si</c><c>   3</c></rc>
    <rc><c>Si</c><c>   3</c></rc>
    <rc><c>Si</c><c>   3</c></rc>
    <rc><c>Si</c><c>   3</c></rc>
    <rc><c>Si</c><c>   3</c></rc>
    <rc><c>Si</c><c>   3</c></rc>
    <rc><c>Si</c><c>   3</c></rc>
    <rc><c>Si</c><c>   3</c></rc>
    <rc><c>Si</c><c>   3</c></rc>
    <rc><c>Si</c><c>   3</c></rc>
    <rc><c>Si</c><c>   3</c></rc>
    <rc><c>Si</c><c>   3</c></rc>
    <rc><c>Si</c><c>   3</c></rc>
    <rc><c>Si</c><c>   3</c></rc>
    <rc><c>Si</c><c>   3</c></rc>
    <rc><c>Si</c><c>   3</c></rc>
    <rc><c>Si</c><c>   3</c></rc>
    <rc><c>Si</c><c>   3</c></rc>
    <rc><c>Si</c><c>   3</c></rc>
    <rc><c>Si</c><c>   3</c></rc>
    <rc><c>Si</c><c>   3</c></rc>
    <rc><c>Si</c><c>   3</c></rc>
    <rc><c>Si</c><c>   3</c></rc>
    <rc><c>Si</c><c>   3</c></rc>
    <rc><c>Si</c><c>   3</c></rc>
    <rc><c>Si</c><c>   3</c></rc>
    <rc><c>Si</c><c>   3</c></rc>
    <rc><c>Si</c><c>   3</c></rc>
    <rc><c>Si</c><c>   3</c></rc>
    <rc><c>Si</c><c>   3</c></rc>
    <rc><c>Si</c><c>   3</c></rc>
    <rc><c>Si</c><c>   3</c></rc>
    <rc><c>Si</c><c>   3</c></rc>
    <rc><c>Si</c><c>   3</c></rc>
    <rc><c>Si</c><c>   3</c></rc>
    <rc><c>Si</c><c>   3</c></rc>
    <rc><c>Si</c><c>   3</c></rc>
    <rc><c>Si</c><c>   3</c></rc>
    <rc><c>Si</c><c>   3</c></rc>
    <rc><c>Si</c><c>   3</c></rc>
    <rc><c>Si</c><c>   3</c></rc>
    <rc><c>Si</c><c>   3</c></rc>
    <rc><c>Si</c><c>   3</c></rc>
    <rc><c>Si</c><c>   3</c></rc>
    <rc><c>Si</c><c>   3</c></rc>
    <rc><c>Si</c><c>   3</c></rc>
    <rc><c>Si</c><c>   3</c></rc>
    <rc><c>Si</c><c>   3</c></rc>
    <rc><c>Si</c><c>   3</c></rc>
    <rc><c>Si</c><c>   3</c></rc>
    <rc><c>Si</c><c>   3</c></rc>
    <rc><c>Si</c><c>   3</c></rc>
    <rc><c>Si</c><c>   3</c></rc>
    <rc><c>Si</c><c>   3</c></rc>
    <rc><c>Si</c><c>   3</c></rc>
    <rc><c>Si</c><c>   3</c></rc>
    <rc><c>Si</c><c>   3</c></rc>
    <rc><c>Si</c><c>   3</c></rc>
    <rc><c>Si</c><c>   3</c></rc>
    <rc><c>Si</c><c>   3</c></rc>
    <rc><c>Si</c><c>   3</c></rc>
    <rc><c>Si</c><c>   3</c></rc>
    <rc><c>Si</c><c>   3</c></rc>
    <rc><c>Si</c><c>   3</c></rc>
    <rc><c>Si</c><c>   3</c></rc>
    <rc><c>Si</c><c>   3</c></rc>
    <rc><c>Si</c><c>   3</c></rc>
    <rc><c>Si</c><c>   3</c></rc>
    <rc><c>Si</c><c>   3</c></rc>
    <rc><c>Si</c><c>   3</c></rc>
    <rc><c>Si</c><c>   3</c></rc>
    <rc><c>Si</c><c>   3</c></rc>
    <rc><c>Si</c><c>   3</c></rc>
    <rc><c>Si</c><c>   3</c></rc>
    <rc><c>Si</c><c>   3</c></rc>
    <rc><c>Si</c><c>   3</c></rc>
    <rc><c>Si</c><c>   3</c></rc>
    <rc><c>Si</c><c>   3</c></rc>
    <rc><c>Si</c><c>   3</c></rc>
    <rc><c>Si</c><c>   3</c></rc>
    <rc><c>Si</c><c>   3</c></rc>
    <rc><c>Si</c><c>   3</c></rc>
    <rc><c>Si</c><c>   3</c></rc>
    <rc><c>Si</c><c>   3</c></rc>
    <rc><c>Si</c><c>   3</c></rc>
    <rc><c>Si</c><c>   3</c></rc>
    <rc><c>Si</c><c>   3</c></rc>
    <rc><c>Si</c><c>   3</c></rc>
    <rc><c>Si</c><c>   3</c></rc>
    <rc><c>Si</c><c>   3</c></rc>
    <rc><c>Si</c><c>   3</c></rc>
    <rc><c>Si</c><c>   3</c></rc>
    <rc><c>Si</c><c>   3</c></rc>
    <rc><c>Si</c><c>   3</c></rc>
    <rc><c>Si</c><c>   3</c></rc>
    <rc><c>Si</c><c>   3</c></rc>
   </set>
  </array>
  <array name="atomtypes" >
   <dimension dim="1">type</dimension>
   <field type="int">atomspertype</field>
   <field type="string">element</field>
   <field>mass</field>
   <field>valence</field>
   <field type="string">pseudopotential</field>
   <set>
    <rc><c>  14</c><c>C </c><c>     12.01100000</c><c>      4.00000000</c><c>  PAW_PBE C_GW 28Sep2005                </c></rc>
    <rc><c>  40</c><c>H </c><c>      1.00000000</c><c>      1.00000000</c><c>  PAW_PBE H_GW 21Apr2008                </c></rc>
    <rc><c> 192</c><c>Si</c><c>     28.08500000</c><c>      4.00000000</c><c>  PAW_PBE Si_GW 04May2012               </c></rc>
   </set>
  </array>
 </atominfo>
 <structure name="initialpos" >
  <crystal>
   <varray name="basis" >
    <v>      15.33298779       0.00000000       0.00000000 </v>
    <v>       7.66649389      13.27875694       0.00000000 </v>
    <v>       0.00000000       0.00000000      41.55799484 </v>
   </varray>
   <i name="volume">   8461.33316923 </i>
   <varray name="rec_basis" >
    <v>       0.06521886      -0.03765413       0.00000000 </v>
    <v>       0.00000000       0.07530825       0.00000000 </v>
    <v>       0.00000000       0.00000000       0.02406276 </v>
   </varray>
  </crystal>
  <varray name="positions" >
   <v>       0.50863515       0.50741892       0.57722604 </v>
   <v>       0.45580781       0.46128393       0.56532782 </v>
   <v>       0.55749321       0.54217550       0.55805533 </v>
   <v>       0.45105556       0.45518485       0.53001359 </v>
   <v>       0.50045528       0.48691189       0.50892161 </v>
   <v>       0.54989049       0.53561524       0.52292916 </v>
   <v>       0.60000909       0.59720173       0.57190541 </v>
   <v>       0.63876042       0.64329596       0.55298029 </v>
   <v>       0.63392489       0.63773051       0.51891820 </v>
   <v>       0.58979143       0.58947978       0.50512339 </v>
   <v>       0.40173773       0.42861678       0.58405987 </v>
   <v>       0.35617440       0.37885582       0.57107012 </v>
   <v>       0.35847366       0.36567737       0.53710580 </v>
   <v>       0.40154451       0.40376389       0.51759568 </v>
   <v>       0.39208436       0.44523630       0.61031370 </v>
   <v>       0.32415701       0.34270915       0.58519870 </v>
   <v>       0.32036829       0.32490199       0.52738019 </v>
   <v>       0.39710090       0.39389051       0.49190528 </v>
   <v>       0.51445592       0.51315690       0.60282920 </v>
   <v>       0.58701704       0.59107945       0.47961585 </v>
   <v>       0.67146076       0.66853284       0.50405451 </v>
   <v>       0.60631875       0.59677964       0.59791506 </v>
   <v>       0.67590772       0.68268936       0.56323774 </v>
   <v>       0.01140677       0.98905789       0.01999749 </v>
   <v>       0.48243439       0.01596033       0.02048947 </v>
   <v>       0.99719450       0.50879995       0.02211599 </v>
   <v>       0.50960378       0.48567319       0.01912792 </v>
   <v>       0.24091483       0.99743515       0.01935245 </v>
   <v>       0.75296484       0.99852163       0.01918542 </v>
   <v>       0.23987099       0.50949483       0.02037006 </v>
   <v>       0.76279842       0.48742116       0.02116529 </v>
   <v>       0.99536073       0.24758183       0.02120268 </v>
   <v>       0.49038451       0.24181405       0.02245775 </v>
   <v>       0.00025803       0.76045671       0.02149608 </v>
   <v>       0.51045170       0.73342359       0.02056937 </v>
   <v>       0.25989604       0.25052651       0.02045056 </v>
   <v>       0.75793465       0.24301316       0.02029221 </v>
   <v>       0.23927608       0.74446234       0.01945557 </v>
   <v>       0.72669653       0.75824766       0.02180483 </v>
   <v>       0.01262557       0.98659388       0.48508798 </v>
   <v>       0.48677797       0.99916107       0.48542719 </v>
   <v>       0.99094072       0.50979579       0.48771025 </v>
   <v>       0.25275244       0.99546612       0.48467069 </v>
   <v>       0.72836574       0.02781514       0.48492659 </v>
   <v>       0.23132063       0.50796999       0.48735807 </v>
   <v>       0.76642835       0.49543658       0.48284762 </v>
   <v>       0.98168640       0.26531683       0.48337703 </v>
   <v>       0.52519719       0.24127801       0.48443163 </v>
   <v>       0.00507038       0.75561344       0.48745713 </v>
   <v>       0.47334181       0.77775588       0.48336885 </v>
   <v>       0.23513138       0.26620027       0.48702648 </v>
   <v>       0.76138054       0.23651711       0.48612958 </v>
   <v>       0.23658457       0.77121678       0.48645156 </v>
   <v>       0.74900915       0.75853908       0.48573861 </v>
   <v>       0.00000000       0.00000000       0.05648431 </v>
   <v>       0.50000000       0.00000000       0.05648431 </v>
   <v>       1.00000000       0.50000000       0.05648431 </v>
   <v>       0.50000000       0.50000000       0.05648431 </v>
   <v>       0.25000000       0.00000000       0.05648431 </v>
   <v>       0.75000000       0.00000000       0.05648431 </v>
   <v>       0.25000000       0.50000000       0.05648431 </v>
   <v>       0.75000000       0.50000000       0.05648431 </v>
   <v>       1.00000000       0.25000000       0.05648431 </v>
   <v>       0.50000000       0.25000000       0.05648431 </v>
   <v>       0.00000000       0.75000000       0.05648431 </v>
   <v>       0.50000000       0.75000000       0.05648431 </v>
   <v>       0.25000000       0.25000000       0.05648431 </v>
   <v>       0.75000000       0.25000000       0.05648431 </v>
   <v>       0.25000000       0.75000000       0.05648431 </v>
   <v>       0.75000000       0.75000000       0.05648431 </v>
   <v>       0.83333331       0.83333331       0.07531242 </v>
   <v>       0.33333334       0.83333331       0.07531242 </v>
   <v>       0.83333331       0.33333334       0.07531242 </v>
   <v>       0.33333334       0.33333334       0.07531242 </v>
   <v>       0.08333334       0.83333331       0.07531242 </v>
   <v>       0.58333331       0.83333331       0.07531242 </v>
   <v>       0.08333334       0.33333334       0.07531242 </v>
   <v>       0.58333331       0.33333334       0.07531242 </v>
   <v>       0.83333331       0.08333334       0.07531242 </v>
   <v>       0.33333334       0.08333334       0.07531242 </v>
   <v>       0.83333331       0.58333331       0.07531242 </v>
   <v>       0.33333334       0.58333331       0.07531242 </v>
   <v>       0.08333334       0.08333334       0.07531242 </v>
   <v>       0.58333331       0.08333334       0.07531242 </v>
   <v>       0.08333334       0.58333331       0.07531242 </v>
   <v>       0.58333331       0.58333331       0.07531242 </v>
   <v>       0.83333331       0.83333331       0.13179672 </v>
   <v>       0.33333334       0.83333331       0.13179672 </v>
   <v>       0.83333331       0.33333334       0.13179672 </v>
   <v>       0.33333334       0.33333334       0.13179672 </v>
   <v>       0.08333334       0.83333331       0.13179672 </v>
   <v>       0.58333331       0.83333331       0.13179672 </v>
   <v>       0.08333334       0.33333334       0.13179672 </v>
   <v>       0.58333331       0.33333334       0.13179672 </v>
   <v>       0.83333331       0.08333334       0.13179672 </v>
   <v>       0.33333334       0.08333334       0.13179672 </v>
   <v>       0.83333331       0.58333331       0.13179672 </v>
   <v>       0.33333334       0.58333331       0.13179672 </v>
   <v>       0.08333334       0.08333334       0.13179672 </v>
   <v>       0.58333331       0.08333334       0.13179672 </v>
   <v>       0.08333334       0.58333331       0.13179672 </v>
   <v>       0.58333331       0.58333331       0.13179672 </v>
   <v>       0.66666669       0.66666669       0.15062483 </v>
   <v>       0.16666667       0.66666669       0.15062483 </v>
   <v>       0.66666669       0.16666667       0.15062483 </v>
   <v>       0.16666667       0.16666667       0.15062483 </v>
   <v>       0.91666669       0.66666669       0.15062483 </v>
   <v>       0.41666666       0.66666669       0.15062483 </v>
   <v>       0.91666669       0.16666667       0.15062483 </v>
   <v>       0.41666666       0.16666667       0.15062483 </v>
   <v>       0.66666669       0.91666669       0.15062483 </v>
   <v>       0.16666667       0.91666669       0.15062483 </v>
   <v>       0.66666669       0.41666666       0.15062483 </v>
   <v>       0.16666667       0.41666666       0.15062483 </v>
   <v>       0.91666669       0.91666669       0.15062483 </v>
   <v>       0.41666666       0.91666669       0.15062483 </v>
   <v>       0.91666669       0.41666666       0.15062483 </v>
   <v>       0.41666666       0.41666666       0.15062483 </v>
   <v>       0.66691256       0.66650248       0.20705401 </v>
   <v>       0.16691388       0.66649014       0.20705898 </v>
   <v>       0.66690344       0.16650572       0.20706598 </v>
   <v>       0.16684061       0.16660814       0.20708179 </v>
   <v>       0.91692531       0.66649854       0.20705918 </v>
   <v>       0.41692519       0.66647869       0.20706536 </v>
   <v>       0.91692513       0.16650243       0.20707472 </v>
   <v>       0.41696414       0.16651435       0.20706745 </v>
   <v>       0.66691798       0.91648233       0.20704251 </v>
   <v>       0.16694951       0.91644073       0.20704633 </v>
   <v>       0.66691595       0.41648963       0.20705459 </v>
   <v>       0.16692059       0.41647589       0.20705572 </v>
   <v>       0.91694874       0.91646326       0.20705239 </v>
   <v>       0.41701031       0.91640425       0.20704820 </v>
   <v>       0.91693836       0.41649175       0.20706076 </v>
   <v>       0.41692036       0.41647944       0.20706344 </v>
   <v>       0.50027961       0.49979386       0.22588077 </v>
   <v>       0.00028667       0.49982324       0.22588117 </v>
   <v>       0.50028664       0.99980050       0.22585523 </v>
   <v>       0.00032078       0.99976605       0.22586109 </v>
   <v>       0.75028151       0.49981755       0.22585415 </v>
   <v>       0.25025454       0.49979892       0.22586794 </v>
   <v>       0.75028825       0.99977207       0.22584361 </v>
   <v>       0.25032210       0.99981099       0.22577891 </v>
   <v>       0.50031888       0.74973106       0.22591362 </v>
   <v>       0.00028389       0.74979836       0.22589213 </v>
   <v>       0.50029421       0.24984773       0.22593303 </v>
   <v>       0.00016690       0.24989246       0.22594904 </v>
   <v>       0.75026935       0.74982309       0.22586657 </v>
   <v>       0.25028658       0.74977243       0.22589330 </v>
   <v>       0.75025457       0.24982803       0.22588789 </v>
   <v>       0.25034884       0.24982284       0.22589789 </v>
   <v>       0.50049311       0.49963021       0.28230625 </v>
   <v>       0.00050731       0.49968964       0.28230851 </v>
   <v>       0.50051337       0.99962586       0.28226964 </v>
   <v>       0.00059072       0.99956340       0.28227770 </v>
   <v>       0.75046229       0.49970725       0.28226706 </v>
   <v>       0.25044429       0.49965557       0.28228562 </v>
   <v>       0.75051129       0.99957675       0.28225109 </v>
   <v>       0.25060219       0.99960679       0.28215270 </v>
   <v>       0.50056702       0.74950278       0.28235546 </v>
   <v>       0.00050130       0.74963838       0.28232343 </v>
   <v>       0.50053847       0.24974354       0.28238247 </v>
   <v>       0.00022542       0.24985044       0.28240289 </v>
   <v>       0.75046211       0.74969256       0.28228702 </v>
   <v>       0.25051790       0.74957991       0.28232459 </v>
   <v>       0.75041085       0.24970731       0.28231667 </v>
   <v>       0.25066370       0.24970363       0.28232852 </v>
   <v>       0.33391163       0.33313787       0.30122887 </v>
   <v>       0.83340478       0.33325410       0.30123816 </v>
   <v>       0.33380580       0.83306384       0.30105916 </v>
   <v>       0.83384037       0.83295310       0.30113371 </v>
   <v>       0.58387220       0.33310598       0.30124070 </v>
   <v>       0.08398665       0.33295631       0.30108731 </v>
   <v>       0.58382905       0.83298177       0.30112000 </v>
   <v>       0.08388577       0.83291119       0.30115693 </v>
   <v>       0.33384538       0.58284026       0.30112975 </v>
   <v>       0.83381855       0.58302647       0.30109687 </v>
   <v>       0.33384517       0.08289958       0.30104594 </v>
   <v>       0.83388197       0.08288339       0.30102269 </v>
   <v>       0.58398402       0.58273447       0.30118588 </v>
   <v>       0.08386202       0.58297580       0.30116989 </v>
   <v>       0.58390039       0.08290785       0.30108313 </v>
   <v>       0.08406826       0.08289581       0.30098030 </v>
   <v>       0.33179444       0.33542253       0.35757460 </v>
   <v>       0.82526558       0.33494288       0.35819028 </v>
   <v>       0.33329706       0.83035401       0.35837422 </v>
   <v>       0.82411767       0.84010805       0.35679313 </v>
   <v>       0.58008712       0.33398869       0.35848861 </v>
   <v>       0.08484626       0.33148675       0.35700987 </v>
   <v>       0.58382981       0.82980590       0.35700902 </v>
   <v>       0.08127515       0.83176239       0.35729290 </v>
   <v>       0.32724627       0.58384667       0.35860746 </v>
   <v>       0.82926338       0.58695800       0.35627562 </v>
   <v>       0.33482775       0.08488403       0.35697300 </v>
   <v>       0.83818974       0.08164705       0.35644816 </v>
   <v>       0.57674527       0.58266705       0.36073649 </v>
   <v>       0.08096703       0.58568634       0.35666182 </v>
   <v>       0.57981399       0.08523705       0.35696399 </v>
   <v>       0.08512183       0.08726671       0.35760964 </v>
   <v>       0.17230117       0.16160901       0.37736269 </v>
   <v>       0.66979085       0.16510232       0.37365611 </v>
   <v>       0.16304989       0.66793713       0.37654601 </v>
   <v>       0.66209317       0.66558790       0.37627523 </v>
   <v>       0.41374778       0.17149616       0.37746844 </v>
   <v>       0.91997435       0.16683264       0.37332993 </v>
   <v>       0.41196646       0.65977522       0.38112373 </v>
   <v>       0.91090154       0.67322513       0.37682450 </v>
   <v>       0.16384146       0.41837075       0.37505581 </v>
   <v>       0.65949383       0.41924233       0.37977919 </v>
   <v>       0.16191194       0.91954404       0.37395093 </v>
   <v>       0.66114931       0.92155711       0.37515555 </v>
   <v>       0.41657620       0.41840574       0.37888653 </v>
   <v>       0.91598629       0.41875181       0.37268250 </v>
   <v>       0.41755020       0.91753068       0.37187545 </v>
   <v>       0.91383402       0.91554537       0.37510442 </v>
   <v>       0.16643461       0.17468787       0.43255848 </v>
   <v>       0.67273982       0.17110719       0.42956042 </v>
   <v>       0.15926938       0.67286096       0.43344478 </v>
   <v>       0.65699830       0.67413102       0.43223225 </v>
   <v>       0.41359123       0.16933152       0.43321325 </v>
   <v>       0.92306988       0.16841676       0.42966971 </v>
   <v>       0.42123392       0.65602581       0.43696045 </v>
   <v>       0.90873113       0.67423250       0.43259538 </v>
   <v>       0.16306916       0.42387969       0.43110996 </v>
   <v>       0.66191906       0.42338493       0.43689943 </v>
   <v>       0.17411436       0.91679881       0.42942167 </v>
   <v>       0.66513188       0.92649591       0.43043345 </v>
   <v>       0.41456762       0.41704536       0.43447870 </v>
   <v>       0.91921220       0.41231278       0.42760204 </v>
   <v>       0.41492615       0.91974600       0.42797988 </v>
   <v>       0.91816161       0.91893173       0.43148518 </v>
   <v>       0.00866269       0.00094020       0.44774954 </v>
   <v>       0.50001952       0.00111409       0.45025158 </v>
   <v>       0.99519491       0.50622309       0.45098010 </v>
   <v>       0.49438136       0.49232937       0.46173829 </v>
   <v>       0.24589465       0.00734488       0.44824600 </v>
   <v>       0.75219335       0.00710705       0.44904733 </v>
   <v>       0.24670496       0.50447768       0.45023073 </v>
   <v>       0.75738788       0.50048915       0.44659190 </v>
   <v>       0.99808358       0.25465842       0.44870132 </v>
   <v>       0.50633312       0.24317544       0.44880534 </v>
   <v>       0.99033175       0.75238536       0.44998705 </v>
   <v>       0.48943526       0.75800388       0.44793375 </v>
   <v>       0.25051634       0.25851186       0.45071795 </v>
   <v>       0.75660893       0.25135133       0.45074757 </v>
   <v>       0.25439418       0.75462926       0.45194663 </v>
   <v>       0.74124261       0.76030412       0.45049279 </v>
  </varray>
  <varray name="selective"  type="logical" >
   <v type="logical" >  T  T  T </v>
   <v type="logical" >  T  T  T </v>
   <v type="logical" >  T  T  T </v>
   <v type="logical" >  T  T  T </v>
   <v type="logical" >  T  T  T </v>
   <v type="logical" >  T  T  T </v>
   <v type="logical" >  T  T  T </v>
   <v type="logical" >  T  T  T </v>
   <v type="logical" >  T  T  T </v>
   <v type="logical" >  T  T  T </v>
   <v type="logical" >  T  T  T </v>
   <v type="logical" >  T  T  T </v>
   <v type="logical" >  T  T  T </v>
   <v type="logical" >  T  T  T </v>
   <v type="logical" >  T  T  T </v>
   <v type="logical" >  T  T  T </v>
   <v type="logical" >  T  T  T </v>
   <v type="logical" >  T  T  T </v>
   <v type="logical" >  T  T  T </v>
   <v type="logical" >  T  T  T </v>
   <v type="logical" >  T  T  T </v>
   <v type="logical" >  T  T  T </v>
   <v type="logical" >  T  T  T </v>
   <v type="logical" >  T  T  T </v>
   <v type="logical" >  T  T  T </v>
   <v type="logical" >  T  T  T </v>
   <v type="logical" >  T  T  T </v>
   <v type="logical" >  T  T  T </v>
   <v type="logical" >  T  T  T </v>
   <v type="logical" >  T  T  T </v>
   <v type="logical" >  T  T  T </v>
   <v type="logical" >  T  T  T </v>
   <v type="logical" >  T  T  T </v>
   <v type="logical" >  T  T  T </v>
   <v type="logical" >  T  T  T </v>
   <v type="logical" >  T  T  T </v>
   <v type="logical" >  T  T  T </v>
   <v type="logical" >  T  T  T </v>
   <v type="logical" >  T  T  T </v>
   <v type="logical" >  T  T  T </v>
   <v type="logical" >  T  T  T </v>
   <v type="logical" >  T  T  T </v>
   <v type="logical" >  T  T  T </v>
   <v type="logical" >  T  T  T </v>
   <v type="logical" >  T  T  T </v>
   <v type="logical" >  T  T  T </v>
   <v type="logical" >  T  T  T </v>
   <v type="logical" >  T  T  T </v>
   <v type="logical" >  T  T  T </v>
   <v type="logical" >  T  T  T </v>
   <v type="logical" >  T  T  T </v>
   <v type="logical" >  T  T  T </v>
   <v type="logical" >  T  T  T </v>
   <v type="logical" >  T  T  T </v>
   <v type="logical" >  F  F  F </v>
   <v type="logical" >  F  F  F </v>
   <v type="logical" >  F  F  F </v>
   <v type="logical" >  F  F  F </v>
   <v type="logical" >  F  F  F </v>
   <v type="logical" >  F  F  F </v>
   <v type="logical" >  F  F  F </v>
   <v type="logical" >  F  F  F </v>
   <v type="logical" >  F  F  F </v>
   <v type="logical" >  F  F  F </v>
   <v type="logical" >  F  F  F </v>
   <v type="logical" >  F  F  F </v>
   <v type="logical" >  F  F  F </v>
   <v type="logical" >  F  F  F </v>
   <v type="logical" >  F  F  F </v>
   <v type="logical" >  F  F  F </v>
   <v type="logical" >  F  F  F </v>
   <v type="logical" >  F  F  F </v>
   <v type="logical" >  F  F  F </v>
   <v type="logical" >  F  F  F </v>
   <v type="logical" >  F  F  F </v>
   <v type="logical" >  F  F  F </v>
   <v type="logical" >  F  F  F </v>
   <v type="logical" >  F  F  F </v>
   <v type="logical" >  F  F  F </v>
   <v type="logical" >  F  F  F </v>
   <v type="logical" >  F  F  F </v>
   <v type="logical" >  F  F  F </v>
   <v type="logical" >  F  F  F </v>
   <v type="logical" >  F  F  F </v>
   <v type="logical" >  F  F  F </v>
   <v type="logical" >  F  F  F </v>
   <v type="logical" >  F  F  F </v>
   <v type="logical" >  F  F  F </v>
   <v type="logical" >  F  F  F </v>
   <v type="logical" >  F  F  F </v>
   <v type="logical" >  F  F  F </v>
   <v type="logical" >  F  F  F </v>
   <v type="logical" >  F  F  F </v>
   <v type="logical" >  F  F  F </v>
   <v type="logical" >  F  F  F </v>
   <v type="logical" >  F  F  F </v>
   <v type="logical" >  F  F  F </v>
   <v type="logical" >  F  F  F </v>
   <v type="logical" >  F  F  F </v>
   <v type="logical" >  F  F  F </v>
   <v type="logical" >  F  F  F </v>
   <v type="logical" >  F  F  F </v>
   <v type="logical" >  F  F  F </v>
   <v type="logical" >  F  F  F </v>
   <v type="logical" >  F  F  F </v>
   <v type="logical" >  F  F  F </v>
   <v type="logical" >  F  F  F </v>
   <v type="logical" >  F  F  F </v>
   <v type="logical" >  F  F  F </v>
   <v type="logical" >  F  F  F </v>
   <v type="logical" >  F  F  F </v>
   <v type="logical" >  F  F  F </v>
   <v type="logical" >  F  F  F </v>
   <v type="logical" >  F  F  F </v>
   <v type="logical" >  F  F  F </v>
   <v type="logical" >  F  F  F </v>
   <v type="logical" >  F  F  F </v>
   <v type="logical" >  F  F  F </v>
   <v type="logical" >  F  F  F </v>
   <v type="logical" >  F  F  F </v>
   <v type="logical" >  F  F  F </v>
   <v type="logical" >  F  F  F </v>
   <v type="logical" >  F  F  F </v>
   <v type="logical" >  F  F  F </v>
   <v type="logical" >  F  F  F </v>
   <v type="logical" >  F  F  F </v>
   <v type="logical" >  F  F  F </v>
   <v type="logical" >  F  F  F </v>
   <v type="logical" >  F  F  F </v>
   <v type="logical" >  F  F  F </v>
   <v type="logical" >  F  F  F </v>
   <v type="logical" >  F  F  F </v>
   <v type="logical" >  F  F  F </v>
   <v type="logical" >  F  F  F </v>
   <v type="logical" >  F  F  F </v>
   <v type="logical" >  F  F  F </v>
   <v type="logical" >  F  F  F </v>
   <v type="logical" >  F  F  F </v>
   <v type="logical" >  F  F  F </v>
   <v type="logical" >  F  F  F </v>
   <v type="logical" >  F  F  F </v>
   <v type="logical" >  F  F  F </v>
   <v type="logical" >  F  F  F </v>
   <v type="logical" >  F  F  F </v>
   <v type="logical" >  F  F  F </v>
   <v type="logical" >  F  F  F </v>
   <v type="logical" >  F  F  F </v>
   <v type="logical" >  F  F  F </v>
   <v type="logical" >  F  F  F </v>
   <v type="logical" >  F  F  F </v>
   <v type="logical" >  F  F  F </v>
   <v type="logical" >  F  F  F </v>
   <v type="logical" >  F  F  F </v>
   <v type="logical" >  F  F  F </v>
   <v type="logical" >  F  F  F </v>
   <v type="logical" >  F  F  F </v>
   <v type="logical" >  F  F  F </v>
   <v type="logical" >  F  F  F </v>
   <v type="logical" >  F  F  F </v>
   <v type="logical" >  F  F  F </v>
   <v type="logical" >  F  F  F </v>
   <v type="logical" >  F  F  F </v>
   <v type="logical" >  F  F  F </v>
   <v type="logical" >  F  F  F </v>
   <v type="logical" >  F  F  F </v>
   <v type="logical" >  F  F  F </v>
   <v type="logical" >  F  F  F </v>
   <v type="logical" >  F  F  F </v>
   <v type="logical" >  F  F  F </v>
   <v type="logical" >  F  F  F </v>
   <v type="logical" >  F  F  F </v>
   <v type="logical" >  F  F  F </v>
   <v type="logical" >  F  F  F </v>
   <v type="logical" >  F  F  F </v>
   <v type="logical" >  F  F  F </v>
   <v type="logical" >  F  F  F </v>
   <v type="logical" >  F  F  F </v>
   <v type="logical" >  F  F  F </v>
   <v type="logical" >  F  F  F </v>
   <v type="logical" >  F  F  F </v>
   <v type="logical" >  F  F  F </v>
   <v type="logical" >  F  F  F </v>
   <v type="logical" >  T  T  T </v>
   <v type="logical" >  T  T  T </v>
   <v type="logical" >  T  T  T </v>
   <v type="logical" >  T  T  T </v>
   <v type="logical" >  T  T  T </v>
   <v type="logical" >  T  T  T </v>
   <v type="logical" >  T  T  T </v>
   <v type="logical" >  T  T  T </v>
   <v type="logical" >  T  T  T </v>
   <v type="logical" >  T  T  T </v>
   <v type="logical" >  T  T  T </v>
   <v type="logical" >  T  T  T </v>
   <v type="logical" >  T  T  T </v>
   <v type="logical" >  T  T  T </v>
   <v type="logical" >  T  T  T </v>
   <v type="logical" >  T  T  T </v>
   <v type="logical" >  T  T  T </v>
   <v type="logical" >  T  T  T </v>
   <v type="logical" >  T  T  T </v>
   <v type="logical" >  T  T  T </v>
   <v type="logical" >  T  T  T </v>
   <v type="logical" >  T  T  T </v>
   <v type="logical" >  T  T  T </v>
   <v type="logical" >  T  T  T </v>
   <v type="logical" >  T  T  T </v>
   <v type="logical" >  T  T  T </v>
   <v type="logical" >  T  T  T </v>
   <v type="logical" >  T  T  T </v>
   <v type="logical" >  T  T  T </v>
   <v type="logical" >  T  T  T </v>
   <v type="logical" >  T  T  T </v>
   <v type="logical" >  T  T  T </v>
   <v type="logical" >  T  T  T </v>
   <v type="logical" >  T  T  T </v>
   <v type="logical" >  T  T  T </v>
   <v type="logical" >  T  T  T </v>
   <v type="logical" >  T  T  T </v>
   <v type="logical" >  T  T  T </v>
   <v type="logical" >  T  T  T </v>
   <v type="logical" >  T  T  T </v>
   <v type="logical" >  T  T  T </v>
   <v type="logical" >  T  T  T </v>
   <v type="logical" >  T  T  T </v>
   <v type="logical" >  T  T  T </v>
   <v type="logical" >  T  T  T </v>
   <v type="logical" >  T  T  T </v>
   <v type="logical" >  T  T  T </v>
   <v type="logical" >  T  T  T </v>
   <v type="logical" >  T  T  T </v>
   <v type="logical" >  T  T  T </v>
   <v type="logical" >  T  T  T </v>
   <v type="logical" >  T  T  T </v>
   <v type="logical" >  T  T  T </v>
   <v type="logical" >  T  T  T </v>
   <v type="logical" >  T  T  T </v>
   <v type="logical" >  T  T  T </v>
   <v type="logical" >  T  T  T </v>
   <v type="logical" >  T  T  T </v>
   <v type="logical" >  T  T  T </v>
   <v type="logical" >  T  T  T </v>
   <v type="logical" >  T  T  T </v>
   <v type="logical" >  T  T  T </v>
   <v type="logical" >  T  T  T </v>
   <v type="logical" >  T  T  T </v>
  </varray>
  <varray name="velocities" >
   <v>      -0.00006385       0.00021964       0.00001745 </v>
   <v>       0.00009553      -0.00009877       0.00019235 </v>
   <v>       0.00002635       0.00001536       0.00005602 </v>
   <v>      -0.00023417      -0.00004836       0.00001895 </v>
   <v>      -0.00037795       0.00010652       0.00007550 </v>
   <v>       0.00007878      -0.00018828      -0.00015999 </v>
   <v>       0.00009586       0.00010214       0.00003310 </v>
   <v>      -0.00036498      -0.00001901       0.00011322 </v>
   <v>      -0.00005662       0.00003852       0.00011152 </v>
   <v>      -0.00010348       0.00018643       0.00002037 </v>
   <v>      -0.00011253       0.00006612      -0.00005646 </v>
   <v>       0.00019097       0.00034326       0.00000972 </v>
   <v>      -0.00006454       0.00001069       0.00012386 </v>
   <v>      -0.00001419       0.00012021       0.00016745 </v>
   <v>       0.00048114      -0.00002417      -0.00027934 </v>
[...]
   <v type="logical" >  F  F  F </v>
   <v type="logical" >  F  F  F </v>
   <v type="logical" >  F  F  F </v>
   <v type="logical" >  F  F  F </v>
   <v type="logical" >  F  F  F </v>
   <v type="logical" >  F  F  F </v>
   <v type="logical" >  F  F  F </v>
   <v type="logical" >  F  F  F </v>
   <v type="logical" >  F  F  F </v>
   <v type="logical" >  F  F  F </v>
   <v type="logical" >  F  F  F </v>
   <v type="logical" >  F  F  F </v>
   <v type="logical" >  F  F  F </v>
   <v type="logical" >  F  F  F </v>
   <v type="logical" >  F  F  F </v>
   <v type="logical" >  F  F  F </v>
   <v type="logical" >  F  F  F </v>
   <v type="logical" >  F  F  F </v>
   <v type="logical" >  F  F  F </v>
   <v type="logical" >  F  F  F </v>
   <v type="logical" >  F  F  F </v>
   <v type="logical" >  F  F  F </v>
   <v type="logical" >  F  F  F </v>
   <v type="logical" >  F  F  F </v>
   <v type="logical" >  F  F  F </v>
   <v type="logical" >  F  F  F </v>
   <v type="logical" >  F  F  F </v>
   <v type="logical" >  F  F  F </v>
   <v type="logical" >  F  F  F </v>
   <v type="logical" >  F  F  F </v>
   <v type="logical" >  F  F  F </v>
   <v type="logical" >  F  F  F </v>
   <v type="logical" >  F  F  F </v>
   <v type="logical" >  F  F  F </v>
   <v type="logical" >  F  F  F </v>
   <v type="logical" >  F  F  F </v>
   <v type="logical" >  F  F  F </v>
   <v type="logical" >  F  F  F </v>
   <v type="logical" >  F  F  F </v>
   <v type="logical" >  F  F  F </v>
   <v type="logical" >  F  F  F </v>
   <v type="logical" >  F  F  F </v>
   <v type="logical" >  F  F  F </v>
   <v type="logical" >  F  F  F </v>
   <v type="logical" >  F  F  F </v>
   <v type="logical" >  F  F  F </v>
   <v type="logical" >  F  F  F </v>
   <v type="logical" >  F  F  F </v>
   <v type="logical" >  F  F  F </v>
   <v type="logical" >  F  F  F </v>
   <v type="logical" >  F  F  F </v>
   <v type="logical" >  F  F  F </v>
   <v type="logical" >  T  T  T </v>
   <v type="logical" >  T  T  T </v>
   <v type="logical" >  T  T  T </v>
   <v type="logical" >  T  T  T </v>
   <v type="logical" >  T  T  T </v>
   <v type="logical" >  T  T  T </v>
   <v type="logical" >  T  T  T </v>
   <v type="logical" >  T  T  T </v>
   <v type="logical" >  T  T  T </v>
   <v type="logical" >  T  T  T </v>
   <v type="logical" >  T  T  T </v>
   <v type="logical" >  T  T  T </v>
   <v type="logical" >  T  T  T </v>
   <v type="logical" >  T  T  T </v>
   <v type="logical" >  T  T  T </v>
   <v type="logical" >  T  T  T </v>
   <v type="logical" >  T  T  T </v>
   <v type="logical" >  T  T  T </v>
   <v type="logical" >  T  T  T </v>
   <v type="logical" >  T  T  T </v>
   <v type="logical" >  T  T  T </v>
   <v type="logical" >  T  T  T </v>
   <v type="logical" >  T  T  T </v>
   <v type="logical" >  T  T  T </v>
   <v type="logical" >  T  T  T </v>
   <v type="logical" >  T  T  T </v>
   <v type="logical" >  T  T  T </v>
   <v type="logical" >  T  T  T </v>
   <v type="logical" >  T  T  T </v>
   <v type="logical" >  T  T  T </v>
   <v type="logical" >  T  T  T </v>
   <v type="logical" >  T  T  T </v>
   <v type="logical" >  T  T  T </v>
   <v type="logical" >  T  T  T </v>
   <v type="logical" >  T  T  T </v>
   <v type="logical" >  T  T  T </v>
   <v type="logical" >  T  T  T </v>
   <v type="logical" >  T  T  T </v>
   <v type="logical" >  T  T  T </v>
   <v type="logical" >  T  T  T </v>
   <v type="logical" >  T  T  T </v>
   <v type="logical" >  T  T  T </v>
   <v type="logical" >  T  T  T </v>
   <v type="logical" >  T  T  T </v>
   <v type="logical" >  T  T  T </v>
   <v type="logical" >  T  T  T </v>
   <v type="logical" >  T  T  T </v>
   <v type="logical" >  T  T  T </v>
   <v type="logical" >  T  T  T </v>
   <v type="logical" >  T  T  T </v>
   <v type="logical" >  T  T  T </v>
   <v type="logical" >  T  T  T </v>
   <v type="logical" >  T  T  T </v>
   <v type="logical" >  T  T  T </v>
   <v type="logical" >  T  T  T </v>
   <v type="logical" >  T  T  T </v>
   <v type="logical" >  T  T  T </v>
   <v type="logical" >  T  T  T </v>
   <v type="logical" >  T  T  T </v>
   <v type="logical" >  T  T  T </v>
   <v type="logical" >  T  T  T </v>
   <v type="logical" >  T  T  T </v>
   <v type="logical" >  T  T  T </v>
   <v type="logical" >  T  T  T </v>
  </varray>
  <varray name="velocities" >
   <v>       0.00014656       0.00039113       0.00003179 </v>
   <v>      -0.00047315       0.00044186       0.00001805 </v>
   <v>       0.00010417       0.00008998       0.00001897 </v>
   <v>      -0.00005136       0.00029305      -0.00011605 </v>
   <v>       0.00003013       0.00018387       0.00009600 </v>
   <v>      -0.00033060       0.00037441       0.00019509 </v>
   <v>       0.00015434      -0.00022828       0.00008870 </v>
   <v>      -0.00019411       0.00034234       0.00002375 </v>
   <v>       0.00046768      -0.00021574      -0.00004806 </v>
   <v>       0.00019189      -0.00032345       0.00017335 </v>
   <v>       0.00007052      -0.00028450      -0.00006837 </v>
   <v>      -0.00018372      -0.00010820      -0.00012511 </v>
   <v>       0.00008209       0.00006886      -0.00009998 </v>
   <v>       0.00007105       0.00009130      -0.00005825 </v>
   <v>       0.00097862      -0.00065379      -0.00001191 </v>
   <v>       0.00102625      -0.00023418      -0.00034052 </v>
   <v>       0.00022656      -0.00006356      -0.00004606 </v>
   <v>      -0.00168870       0.00048809      -0.00010929 </v>
   <v>       0.00043900      -0.00027577       0.00013607 </v>
   <v>       0.00015775       0.00094334      -0.00023196 </v>
   <v>      -0.00084344       0.00054105       0.00029921 </v>
   <v>       0.00012794      -0.00054107      -0.00025705 </v>
   <v>      -0.00201417      -0.00020127      -0.00006897 </v>
   <v>       0.00120956      -0.00117638       0.00017141 </v>
   <v>      -0.00185401       0.00166510       0.00005052 </v>
   <v>      -0.00035000       0.00110061      -0.00048435 </v>
   <v>       0.00094747      -0.00141462       0.00020875 </v>
   <v>      -0.00091579      -0.00026197       0.00028457 </v>
   <v>       0.00026128      -0.00013909       0.00028594 </v>
   <v>      -0.00108798       0.00099445       0.00000966 </v>
   <v>       0.00140993      -0.00141091      -0.00020300 </v>
   <v>      -0.00053482      -0.00031318      -0.00028827 </v>
   <v>      -0.00114991      -0.00097443      -0.00026876 </v>
   <v>       0.00005873       0.00118293      -0.00032893 </v>
   <v>       0.00113747      -0.00179439       0.00003746 </v>
   <v>       0.00106963       0.00005950      -0.00001297 </v>
   <v>       0.00087171      -0.00076842       0.00003776 </v>
   <v>      -0.00108111      -0.00058398       0.00026554 </v>
   <v>      -0.00257689       0.00091017      -0.00027885 </v>
   <v>      -0.00041259      -0.00104152      -0.00055654 </v>
   <v>      -0.00104074       0.00055740       0.00020080 </v>
   <v>      -0.00048859       0.00069648      -0.00014827 </v>
   <v>      -0.00011958       0.00067721      -0.00004848 </v>
   <v>      -0.00140686       0.00060649      -0.00021698 </v>
   <v>      -0.00193551       0.00120508      -0.00035298 </v>
   <v>      -0.00089041       0.00073111       0.00016113 </v>
   <v>      -0.00021918      -0.00030661       0.00050366 </v>
   <v>       0.00031858       0.00004365      -0.00008542 </v>
   <v>       0.00094251       0.00096669      -0.00056527 </v>
   <v>      -0.00024088      -0.00070031      -0.00012216 </v>
   <v>      -0.00127411      -0.00010364      -0.00019652 </v>
   <v>       0.00027164       0.00021770       0.00021292 </v>
   <v>      -0.00125923       0.00019377       0.00025538 </v>
   <v>       0.00032332      -0.00016297       0.00029185 </v>
   <v>       0.00000000       0.00000000       0.00000000 </v>
   <v>       0.00000000       0.00000000       0.00000000 </v>
   <v>       0.00000000       0.00000000       0.00000000 </v>
   <v>       0.00000000       0.00000000       0.00000000 </v>
   <v>       0.00000000       0.00000000       0.00000000 </v>
   <v>       0.00000000       0.00000000       0.00000000 </v>
   <v>       0.00000000       0.00000000       0.00000000 </v>
   <v>       0.00000000       0.00000000       0.00000000 </v>
   <v>       0.00000000       0.00000000       0.00000000 </v>
   <v>       0.00000000       0.00000000       0.00000000 </v>
   <v>       0.00000000       0.00000000       0.00000000 </v>
   <v>       0.00000000       0.00000000       0.00000000 </v>
   <v>       0.00000000       0.00000000       0.00000000 </v>
   <v>       0.00000000       0.00000000       0.00000000 </v>
   <v>       0.00000000       0.00000000       0.00000000 </v>
   <v>       0.00000000       0.00000000       0.00000000 </v>
   <v>       0.00000000       0.00000000       0.00000000 </v>
   <v>       0.00000000       0.00000000       0.00000000 </v>
   <v>       0.00000000       0.00000000       0.00000000 </v>
   <v>       0.00000000       0.00000000       0.00000000 </v>
   <v>       0.00000000       0.00000000       0.00000000 </v>
   <v>       0.00000000       0.00000000       0.00000000 </v>
   <v>       0.00000000       0.00000000       0.00000000 </v>
   <v>       0.00000000       0.00000000       0.00000000 </v>
   <v>       0.00000000       0.00000000       0.00000000 </v>
   <v>       0.00000000       0.00000000       0.00000000 </v>
   <v>       0.00000000       0.00000000       0.00000000 </v>
   <v>       0.00000000       0.00000000       0.00000000 </v>
   <v>       0.00000000       0.00000000       0.00000000 </v>
   <v>       0.00000000       0.00000000       0.00000000 </v>
   <v>       0.00000000       0.00000000       0.00000000 </v>
   <v>       0.00000000       0.00000000       0.00000000 </v>
   <v>       0.00000000       0.00000000       0.00000000 </v>
   <v>       0.00000000       0.00000000       0.00000000 </v>
   <v>       0.00000000       0.00000000       0.00000000 </v>
   <v>       0.00000000       0.00000000       0.00000000 </v>
   <v>       0.00000000       0.00000000       0.00000000 </v>
   <v>       0.00000000       0.00000000       0.00000000 </v>
   <v>       0.00000000       0.00000000       0.00000000 </v>
   <v>       0.00000000       0.00000000       0.00000000 </v>
   <v>       0.00000000       0.00000000       0.00000000 </v>
   <v>       0.00000000       0.00000000       0.00000000 </v>
   <v>       0.00000000       0.00000000       0.00000000 </v>
   <v>       0.00000000       0.00000000       0.00000000 </v>
   <v>       0.00000000       0.00000000       0.00000000 </v>
   <v>       0.00000000       0.00000000       0.00000000 </v>
   <v>       0.00000000       0.00000000       0.00000000 </v>
   <v>       0.00000000       0.00000000       0.00000000 </v>
   <v>       0.00000000       0.00000000       0.00000000 </v>
   <v>       0.00000000       0.00000000       0.00000000 </v>
   <v>       0.00000000       0.00000000       0.00000000 </v>
   <v>       0.00000000       0.00000000       0.00000000 </v>
   <v>       0.00000000       0.00000000       0.00000000 </v>
   <v>       0.00000000       0.00000000       0.00000000 </v>
   <v>       0.00000000       0.00000000       0.00000000 </v>
   <v>       0.00000000       0.00000000       0.00000000 </v>
   <v>       0.00000000       0.00000000       0.00000000 </v>
   <v>       0.00000000       0.00000000       0.00000000 </v>
   <v>       0.00000000       0.00000000       0.00000000 </v>
   <v>       0.00000000       0.00000000       0.00000000 </v>
   <v>       0.00000000       0.00000000       0.00000000 </v>
   <v>       0.00000000       0.00000000       0.00000000 </v>
   <v>       0.00000000       0.00000000       0.00000000 </v>
   <v>       0.00000000       0.00000000       0.00000000 </v>
   <v>       0.00000000       0.00000000       0.00000000 </v>
   <v>       0.00000000       0.00000000       0.00000000 </v>
   <v>       0.00000000       0.00000000       0.00000000 </v>
   <v>       0.00000000       0.00000000       0.00000000 </v>
   <v>       0.00000000       0.00000000       0.00000000 </v>
   <v>       0.00000000       0.00000000       0.00000000 </v>
   <v>       0.00000000       0.00000000       0.00000000 </v>
   <v>       0.00000000       0.00000000       0.00000000 </v>
   <v>       0.00000000       0.00000000       0.00000000 </v>
   <v>       0.00000000       0.00000000       0.00000000 </v>
   <v>       0.00000000       0.00000000       0.00000000 </v>
   <v>       0.00000000       0.00000000       0.00000000 </v>
   <v>       0.00000000       0.00000000       0.00000000 </v>
   <v>       0.00000000       0.00000000       0.00000000 </v>
   <v>       0.00000000       0.00000000       0.00000000 </v>
   <v>       0.00000000       0.00000000       0.00000000 </v>
   <v>       0.00000000       0.00000000       0.00000000 </v>
   <v>       0.00000000       0.00000000       0.00000000 </v>
   <v>       0.00000000       0.00000000       0.00000000 </v>
   <v>       0.00000000       0.00000000       0.00000000 </v>
   <v>       0.00000000       0.00000000       0.00000000 </v>
   <v>       0.00000000       0.00000000       0.00000000 </v>
   <v>       0.00000000       0.00000000       0.00000000 </v>
   <v>       0.00000000       0.00000000       0.00000000 </v>
   <v>       0.00000000       0.00000000       0.00000000 </v>
   <v>       0.00000000       0.00000000       0.00000000 </v>
   <v>       0.00000000       0.00000000       0.00000000 </v>
   <v>       0.00000000       0.00000000       0.00000000 </v>
   <v>       0.00000000       0.00000000       0.00000000 </v>
   <v>       0.00000000       0.00000000       0.00000000 </v>
   <v>       0.00000000       0.00000000       0.00000000 </v>
   <v>       0.00000000       0.00000000       0.00000000 </v>
   <v>       0.00000000       0.00000000       0.00000000 </v>
   <v>       0.00000000       0.00000000       0.00000000 </v>
   <v>       0.00000000       0.00000000       0.00000000 </v>
   <v>       0.00000000       0.00000000       0.00000000 </v>
   <v>       0.00000000       0.00000000       0.00000000 </v>
   <v>       0.00000000       0.00000000       0.00000000 </v>
   <v>       0.00000000       0.00000000       0.00000000 </v>
   <v>       0.00000000       0.00000000       0.00000000 </v>
   <v>       0.00000000       0.00000000       0.00000000 </v>
   <v>       0.00000000       0.00000000       0.00000000 </v>
   <v>       0.00000000       0.00000000       0.00000000 </v>
   <v>       0.00000000       0.00000000       0.00000000 </v>
   <v>       0.00000000       0.00000000       0.00000000 </v>
   <v>       0.00000000       0.00000000       0.00000000 </v>
   <v>       0.00000000       0.00000000       0.00000000 </v>
   <v>       0.00000000       0.00000000       0.00000000 </v>
   <v>       0.00000000       0.00000000       0.00000000 </v>
   <v>       0.00000000       0.00000000       0.00000000 </v>
   <v>       0.00000000       0.00000000       0.00000000 </v>
   <v>       0.00000000       0.00000000       0.00000000 </v>
   <v>       0.00000000       0.00000000       0.00000000 </v>
   <v>       0.00000000       0.00000000       0.00000000 </v>
   <v>       0.00000000       0.00000000       0.00000000 </v>
   <v>       0.00000000       0.00000000       0.00000000 </v>
   <v>       0.00000000       0.00000000       0.00000000 </v>
   <v>       0.00000000       0.00000000       0.00000000 </v>
   <v>       0.00000000       0.00000000       0.00000000 </v>
   <v>       0.00000000       0.00000000       0.00000000 </v>
   <v>       0.00000000       0.00000000       0.00000000 </v>
   <v>       0.00000000       0.00000000       0.00000000 </v>
   <v>       0.00000000       0.00000000       0.00000000 </v>
   <v>       0.00000000       0.00000000       0.00000000 </v>
   <v>       0.00012459       0.00004151       0.00002329 </v>
   <v>      -0.00000912      -0.00006962       0.00003363 </v>
   <v>      -0.00001517      -0.00004529       0.00013441 </v>
   <v>      -0.00001316       0.00007586      -0.00007155 </v>
   <v>      -0.00011464      -0.00016550       0.00004108 </v>
   <v>       0.00007717      -0.00017763       0.00000167 </v>
   <v>      -0.00009247      -0.00012023       0.00000766 </v>
   <v>       0.00005173       0.00017265       0.00001459 </v>
   <v>      -0.00006778       0.00000616       0.00004850 </v>
   <v>       0.00011625       0.00000578       0.00003653 </v>
   <v>      -0.00021808       0.00017398      -0.00003902 </v>
   <v>       0.00005893      -0.00013825       0.00004677 </v>
   <v>       0.00009489      -0.00011246       0.00001827 </v>
   <v>       0.00005256       0.00007618       0.00001705 </v>
   <v>       0.00019209      -0.00024134      -0.00002848 </v>
   <v>      -0.00013426       0.00010051      -0.00007626 </v>
   <v>       0.00016255      -0.00032757       0.00003683 </v>
   <v>      -0.00005114       0.00006666       0.00002639 </v>
   <v>       0.00006745       0.00005057       0.00007299 </v>
   <v>       0.00003510       0.00026357       0.00012746 </v>
   <v>       0.00016412       0.00019450      -0.00004394 </v>
   <v>      -0.00018629       0.00020327      -0.00002720 </v>
   <v>      -0.00010735       0.00013289       0.00003916 </v>
   <v>       0.00022373      -0.00007153      -0.00011425 </v>
   <v>      -0.00017189       0.00001442       0.00002399 </v>
   <v>       0.00014526      -0.00001261       0.00005746 </v>
   <v>      -0.00004062       0.00006826      -0.00006099 </v>
   <v>      -0.00000023       0.00004400       0.00000661 </v>
   <v>      -0.00003119      -0.00007064       0.00000420 </v>
   <v>       0.00030673      -0.00001218       0.00001007 </v>
   <v>       0.00000301       0.00017095       0.00002035 </v>
   <v>       0.00000858      -0.00003490       0.00003359 </v>
   <v>       0.00017751      -0.00034252      -0.00003023 </v>
   <v>       0.00002352       0.00000609       0.00009745 </v>
   <v>       0.00007506       0.00018237       0.00007967 </v>
   <v>       0.00011597       0.00007764       0.00001879 </v>
   <v>       0.00014761      -0.00001781       0.00003938 </v>
   <v>      -0.00027337      -0.00015506       0.00007258 </v>
   <v>      -0.00000280      -0.00031335       0.00001920 </v>
   <v>       0.00015164      -0.00032713      -0.00001115 </v>
   <v>      -0.00030876      -0.00000676       0.00007892 </v>
   <v>      -0.00012730       0.00003628       0.00005720 </v>
   <v>      -0.00006959       0.00003184       0.00008306 </v>
   <v>       0.00005830      -0.00030623       0.00002842 </v>
   <v>       0.00004488      -0.00003732       0.00001886 </v>
   <v>       0.00025728       0.00010840       0.00009747 </v>
   <v>      -0.00018755       0.00029846       0.00012727 </v>
   <v>      -0.00010104       0.00012604       0.00004188 </v>
   <v>      -0.00016992       0.00005461      -0.00001227 </v>
   <v>       0.00008018      -0.00026749       0.00002434 </v>
   <v>       0.00015558      -0.00020044       0.00005567 </v>
   <v>       0.00014715      -0.00012304       0.00001368 </v>
   <v>      -0.00005439       0.00009466       0.00011525 </v>
   <v>       0.00015786      -0.00005432       0.00006179 </v>
   <v>       0.00000620      -0.00003413      -0.00009936 </v>
   <v>      -0.00006981       0.00002926       0.00000609 </v>
   <v>      -0.00001695      -0.00024227       0.00009155 </v>
   <v>      -0.00000243       0.00009305      -0.00001882 </v>
   <v>       0.00016039       0.00018950       0.00013653 </v>
   <v>      -0.00007071       0.00035807      -0.00004554 </v>
   <v>      -0.00027734      -0.00003619      -0.00002783 </v>
   <v>      -0.00021942       0.00009700       0.00003198 </v>
   <v>      -0.00010034       0.00003434      -0.00009961 </v>
   <v>      -0.00013319      -0.00004508      -0.00004110 </v>
  </varray>
  <nose>
   <v>      -1.00000000       0.00000000     300.00000000     300.00000000 </v>
  </nose>
 </structure>
</modeling>
