 Entering Gaussian System, Link 0=g16
 Initial command:
 /curc/sw/install/gaussian/g16_c.02/g16/l1.exe "/scratch/local/8849014/Gau-201605.inp" -scrdir="/scratch/local/8849014/"
 Entering Link 1 = /curc/sw/install/gaussian/g16_c.02/g16/l1.exe PID=    201606.
  
 Copyright (c) 1988-2021, Gaussian, Inc.  All Rights Reserved.
  
 This is part of the Gaussian(R) 16 program.  It is based on
 the Gaussian(R) 09 system (copyright 2009, Gaussian, Inc.),
 the Gaussian(R) 03 system (copyright 2003, Gaussian, Inc.),
 the Gaussian(R) 98 system (copyright 1998, Gaussian, Inc.),
 the Gaussian(R) 94 system (copyright 1995, Gaussian, Inc.),
 the Gaussian 92(TM) system (copyright 1992, Gaussian, Inc.),
 the Gaussian 90(TM) system (copyright 1990, Gaussian, Inc.),
 the Gaussian 88(TM) system (copyright 1988, Gaussian, Inc.),
 the Gaussian 86(TM) system (copyright 1986, Carnegie Mellon
 University), and the Gaussian 82(TM) system (copyright 1983,
 Carnegie Mellon University). Gaussian is a federally registered
 trademark of Gaussian, Inc.
  
 This software contains proprietary and confidential information,
 including trade secrets, belonging to Gaussian, Inc.
  
 This software is provided under written license and may be
 used, copied, transmitted, or stored only in accord with that
 written license.
  
 The following legend is applicable only to US Government
 contracts under FAR:
  
                    RESTRICTED RIGHTS LEGEND
  
 Use, reproduction and disclosure by the US Government is
 subject to restrictions as set forth in subparagraphs (a)
 and (c) of the Commercial Computer Software - Restricted
 Rights clause in FAR 52.227-19.
  
 Gaussian, Inc.
 340 Quinnipiac St., Bldg. 40, Wallingford CT 06492
  
  
 ---------------------------------------------------------------
 Warning -- This program may not be used in any manner that
 competes with the business of Gaussian, Inc. or will provide
 assistance to any competitor of Gaussian, Inc.  The licensee
 of this program is prohibited from giving any competitor of
 Gaussian, Inc. access to this program.  By using this program,
 the user acknowledges that Gaussian, Inc. is engaged in the
 business of creating and licensing software in the field of
 computational chemistry and represents and warrants to the
 licensee that it is not a competitor of Gaussian, Inc. and that
 it will not use this program in any manner prohibited above.
 ---------------------------------------------------------------
  

 Cite this work as:
 Gaussian 16, Revision C.02,
 M. J. Frisch, G. W. Trucks, H. B. Schlegel, G. E. Scuseria, 
 M. A. Robb, J. R. Cheeseman, G. Scalmani, V. Barone, 
 G. A. Petersson, H. Nakatsuji, X. Li, M. Caricato, A. V. Marenich, 
 J. Bloino, B. G. Janesko, R. Gomperts, B. Mennucci, H. P. Hratchian, 
 J. V. Ortiz, A. F. Izmaylov, J. L. Sonnenberg, D. Williams-Young, 
 F. Ding, F. Lipparini, F. Egidi, J. Goings, B. Peng, A. Petrone, 
 T. Henderson, D. Ranasinghe, V. G. Zakrzewski, J. Gao, N. Rega, 
 G. Zheng, W. Liang, M. Hada, M. Ehara, K. Toyota, R. Fukuda, 
 J. Hasegawa, M. Ishida, T. Nakajima, Y. Honda, O. Kitao, H. Nakai, 
 T. Vreven, K. Throssell, J. A. Montgomery, Jr., J. E. Peralta, 
 F. Ogliaro, M. J. Bearpark, J. J. Heyd, E. N. Brothers, K. N. Kudin, 
 V. N. Staroverov, T. A. Keith, R. Kobayashi, J. Normand, 
 K. Raghavachari, A. P. Rendell, J. C. Burant, S. S. Iyengar, 
 J. Tomasi, M. Cossi, J. M. Millam, M. Klene, C. Adamo, R. Cammi, 
 J. W. Ochterski, R. L. Martin, K. Morokuma, O. Farkas, 
 J. B. Foresman, and D. J. Fox, Gaussian, Inc., Wallingford CT, 2019.
 
 ******************************************
 Gaussian 16:  ES64L-G16RevC.02  7-Dec-2021
                18-Oct-2024 
 ******************************************
 %NProcShared=32
 Will use up to   32 processors via shared memory.
 %Chk=tddft
 ---------------------------------------
 #p PBEPBE/cc-pVDZ TD(NStates=40,Root=0)
 ---------------------------------------
 1/38=1,172=1/1;
 2/12=2,17=6,18=5,40=1/2;
 3/5=16,11=9,25=1,30=1,74=1009/1,2,3,8;
 4//1;
 5/5=2,38=5/2;
 8/6=1,10=1,108=40/1;
 9/41=40,42=1,70=2/14;
 6/7=2,8=2,9=2,10=2/1;
 99/5=1,9=1/99;
 Leave Link    1 at Fri Oct 18 14:37:08 2024, MaxMem=           0 cpu:               0.2 elap:               1.0
 (Enter /curc/sw/install/gaussian/g16_c.02/g16/l101.exe)
 ---------------------------------------------
 TD-DFT excited state calculation: PBE/cc-pVDZ
 ---------------------------------------------
 Symbolic Z-matrix:
 Charge =  0 Multiplicity = 1
 C                     10.7883   5.60957   26.3173 
 C                     9.92421   6.47424   25.63038 
 C                     12.00347   5.21621   25.73742 
 C                     10.27019   6.93771   24.337 
 C                     11.47751   6.53025   23.74973 
 C                     12.3503   5.68044   24.44474 
 C                     12.8861   4.37527   26.43378 
 C                     14.10475   4.00577   25.85792 
 C                     14.44717   4.46338   24.58321 
 C                     13.57402   5.29381   23.8745 
 C                     8.7218    6.89549   26.21979 
 C                     7.87542   7.77343   25.53757 
 C                     8.21584   8.23016   24.26138 
 C                     9.40604   7.81226   23.65865 
 H                     8.44182   6.5545    27.20957 
 H                     6.95432   8.10375   26.00104 
 H                     7.55741   8.91257   23.73981 
 H                     9.65406   8.17971   22.66967 
 H                     10.52354   5.25562   27.30812 
 H                     13.85852   5.64034   22.88784 
 H                     15.39452   4.17703   24.14417 
 H                     12.6387   4.01237   27.42454 
 H                     14.78634   3.36575   26.40315 
 H                     11.74398   6.88702   22.76106 
 
 ITRead=  0  0  0  0  0  0  0  0  0  0  0  0  0  0  0  0  0  0  0  0
 ITRead=  0  0  0  0
 MicOpt= -1 -1 -1 -1 -1 -1 -1 -1 -1 -1 -1 -1 -1 -1 -1 -1 -1 -1 -1 -1
 MicOpt= -1 -1 -1 -1
 NAtoms=     24 NQM=       24 NQMF=       0 NMMI=      0 NMMIF=      0
                NMic=       0 NMicF=      0.
                    Isotopes and Nuclear Properties:
 (Nuclear quadrupole moments (NQMom) in fm**2, nuclear magnetic moments (NMagM)
  in nuclear magnetons)

  Atom         1           2           3           4           5           6           7           8           9          10
 IAtWgt=          12          12          12          12          12          12          12          12          12          12
 AtmWgt=  12.0000000  12.0000000  12.0000000  12.0000000  12.0000000  12.0000000  12.0000000  12.0000000  12.0000000  12.0000000
 NucSpn=           0           0           0           0           0           0           0           0           0           0
 AtZEff=  -0.0000000  -0.0000000  -0.0000000  -0.0000000  -0.0000000  -0.0000000  -0.0000000  -0.0000000  -0.0000000  -0.0000000
 NQMom=    0.0000000   0.0000000   0.0000000   0.0000000   0.0000000   0.0000000   0.0000000   0.0000000   0.0000000   0.0000000
 NMagM=    0.0000000   0.0000000   0.0000000   0.0000000   0.0000000   0.0000000   0.0000000   0.0000000   0.0000000   0.0000000
 AtZNuc=   6.0000000   6.0000000   6.0000000   6.0000000   6.0000000   6.0000000   6.0000000   6.0000000   6.0000000   6.0000000

  Atom        11          12          13          14          15          16          17          18          19          20
 IAtWgt=          12          12          12          12           1           1           1           1           1           1
 AtmWgt=  12.0000000  12.0000000  12.0000000  12.0000000   1.0078250   1.0078250   1.0078250   1.0078250   1.0078250   1.0078250
 NucSpn=           0           0           0           0           1           1           1           1           1           1
 AtZEff=  -0.0000000  -0.0000000  -0.0000000  -0.0000000  -0.0000000  -0.0000000  -0.0000000  -0.0000000  -0.0000000  -0.0000000
 NQMom=    0.0000000   0.0000000   0.0000000   0.0000000   0.0000000   0.0000000   0.0000000   0.0000000   0.0000000   0.0000000
 NMagM=    0.0000000   0.0000000   0.0000000   0.0000000   2.7928460   2.7928460   2.7928460   2.7928460   2.7928460   2.7928460
 AtZNuc=   6.0000000   6.0000000   6.0000000   6.0000000   1.0000000   1.0000000   1.0000000   1.0000000   1.0000000   1.0000000

  Atom        21          22          23          24
 IAtWgt=           1           1           1           1
 AtmWgt=   1.0078250   1.0078250   1.0078250   1.0078250
 NucSpn=           1           1           1           1
 AtZEff=  -0.0000000  -0.0000000  -0.0000000  -0.0000000
 NQMom=    0.0000000   0.0000000   0.0000000   0.0000000
 NMagM=    2.7928460   2.7928460   2.7928460   2.7928460
 AtZNuc=   1.0000000   1.0000000   1.0000000   1.0000000
 Leave Link  101 at Fri Oct 18 14:37:08 2024, MaxMem=   104857600 cpu:               0.1 elap:               0.0
 (Enter /curc/sw/install/gaussian/g16_c.02/g16/l202.exe)
                          Input orientation:                          
 ---------------------------------------------------------------------
 Center     Atomic      Atomic             Coordinates (Angstroms)
 Number     Number       Type             X           Y           Z
 ---------------------------------------------------------------------
      1          6           0       10.788300    5.609570   26.317300
      2          6           0        9.924210    6.474240   25.630380
      3          6           0       12.003470    5.216210   25.737420
      4          6           0       10.270190    6.937710   24.337000
      5          6           0       11.477510    6.530250   23.749730
      6          6           0       12.350300    5.680440   24.444740
      7          6           0       12.886100    4.375270   26.433780
      8          6           0       14.104750    4.005770   25.857920
      9          6           0       14.447170    4.463380   24.583210
     10          6           0       13.574020    5.293810   23.874500
     11          6           0        8.721800    6.895490   26.219790
     12          6           0        7.875420    7.773430   25.537570
     13          6           0        8.215840    8.230160   24.261380
     14          6           0        9.406040    7.812260   23.658650
     15          1           0        8.441820    6.554500   27.209570
     16          1           0        6.954320    8.103750   26.001040
     17          1           0        7.557410    8.912570   23.739810
     18          1           0        9.654060    8.179710   22.669670
     19          1           0       10.523540    5.255620   27.308120
     20          1           0       13.858520    5.640340   22.887840
     21          1           0       15.394520    4.177030   24.144170
     22          1           0       12.638700    4.012370   27.424540
     23          1           0       14.786340    3.365750   26.403150
     24          1           0       11.743980    6.887020   22.761060
 ---------------------------------------------------------------------
                    Distance matrix (angstroms):
                    1          2          3          4          5
     1  C    0.000000
     2  C    1.402200   0.000000
     3  C    1.402723   2.432575   0.000000
     4  C    2.440078   1.416806   2.815848   0.000000
     5  C    2.813375   2.439820   2.440132   1.403044   0.000000
     6  C    2.439538   2.814565   1.416623   2.432939   1.402490
     7  C    2.436766   3.718053   1.403970   4.219665   3.719165
     8  C    3.712418   4.860250   2.427975   5.060960   4.209496
     9  C    4.208105   5.059376   2.805463   4.861079   3.712886
    10  C    3.718496   4.218725   2.437852   3.719087   2.437151
    11  C    2.435882   1.403797   3.717798   2.438071   3.718674
    12  C    3.711487   2.427766   4.860053   2.806193   4.209147
    13  C    4.208545   2.806411   5.060507   2.428271   3.713485
    14  C    3.718993   2.438548   4.219882   1.404191   2.437793
    15  H    2.682351   2.167432   4.079656   3.426579   4.602879
    16  H    4.584796   3.407776   5.822482   3.888917   5.291838
    17  H    5.290739   3.888631   6.117268   3.408208   4.587236
    18  H    4.604055   3.427450   4.869615   2.168449   2.685557
    19  H    1.084944   2.158482   2.158436   3.423619   3.898318
    20  H    4.603085   4.867824   3.426544   4.081586   2.684027
    21  H    5.290740   6.116395   3.888131   5.823856   4.586523
    22  H    2.683469   4.080229   2.167746   4.868301   4.603511
    23  H    4.585458   5.822387   3.407604   6.117474   5.291791
    24  H    3.897697   3.422711   3.423107   2.158289   1.084324
                    6          7          8          9         10
     6  C    0.000000
     7  C    2.438612   0.000000
     8  C    2.807079   1.397588   0.000000
     9  C    2.428430   2.422666   1.396977   0.000000
    10  C    1.404332   2.804793   2.423773   1.397954   0.000000
    11  C    4.218194   4.872237   6.120260   6.432217   5.622260
    12  C    5.059588   6.120261   7.287142   7.419915   6.433379
    13  C    4.860911   6.433570   7.421164   7.288462   6.122248
    14  C    3.719040   5.623617   6.434596   6.122320   4.874550
    15  H    4.866670   5.010241   6.355451   6.880027   6.249121
    16  H    6.116461   7.019604   8.242728   8.450168   7.499224
    17  H    5.823692   7.499300   8.451671   8.244720   7.022333
    18  H    4.082516   6.252069   6.884428   6.359768   5.014591
    19  H    3.422933   2.668553   4.060821   4.842277   4.593107
    20  H    2.168011   3.888405   3.399092   2.146165   1.083753
    21  H    3.408498   3.402026   2.151691   1.082693   2.152705
    22  H    3.427075   1.083747   2.145610   3.398107   3.888405
    23  H    3.889402   2.151971   1.082343   2.152210   3.403117
    24  H    2.158295   4.593713   4.844108   4.062204   2.669665
                   11         12         13         14         15
    11  C    0.000000
    12  C    1.397341   0.000000
    13  C    2.423367   1.397551   0.000000
    14  C    2.805012   2.423767   1.398034   0.000000
    15  H    1.083664   2.145270   3.398636   3.888536   0.000000
    16  H    2.152145   1.082747   2.152633   3.403335   2.464422
    17  H    3.402164   2.151909   1.082242   2.152836   4.287413
    18  H    3.888661   3.399040   2.145824   1.083797   4.972075
    19  H    2.668315   4.060388   4.843139   4.593892   2.455679
    20  H    6.250055   6.882487   6.358743   5.013578   6.989541
    21  H    7.498227   8.450593   8.244698   7.022287   7.961726
    22  H    5.010580   6.355711   6.881644   6.250695   4.911460
    23  H    7.019354   8.242432   8.451103   7.500091   7.146424
    24  H    4.593088   4.843603   4.062359   2.669775   5.550142
                   16         17         18         19         20
    16  H    0.000000
    17  H    2.476099   0.000000
    18  H    4.288635   2.465406   0.000000
    19  H    4.749698   5.907965   5.551713   0.000000
    20  H    7.964194   7.151037   4.916654   5.550583   0.000000
    21  H    9.492316   9.165650   7.151816   5.907655   2.465550
    22  H    7.146882   7.962958   6.991680   2.456242   4.971911
    23  H    9.162471   9.493051   7.965763   4.749952   4.288591
    24  H    5.909209   4.752702   2.459098   4.982639   2.457959
                   21         22         23         24
    21  H    0.000000
    22  H    4.287480   0.000000
    23  H    2.476095   2.464490   0.000000
    24  H    4.752208   5.550872   5.909325   0.000000
 Stoichiometry    C14H10
 Framework group  C1[X(C14H10)]
 Deg. of freedom    66
 Full point group                 C1      NOp   1
 Largest Abelian subgroup         C1      NOp   1
 Largest concise Abelian subgroup C1      NOp   1
                         Standard orientation:                         
 ---------------------------------------------------------------------
 Center     Atomic      Atomic             Coordinates (Angstroms)
 Number     Number       Type             X           Y           Z
 ---------------------------------------------------------------------
      1          6           0        0.000007   -1.405952   -0.031620
      2          6           0       -1.215986   -0.707789   -0.021872
      3          6           0        1.216589   -0.707757   -0.022523
      4          6           0       -1.216876    0.709016   -0.022358
      5          6           0       -0.000042    1.407422   -0.031008
      6          6           0        1.216063    0.708866   -0.021735
      7          6           0        2.436580   -1.402235   -0.001184
      8          6           0        3.643980   -0.699053    0.030012
      9          6           0        3.643899    0.697923    0.030845
     10          6           0        2.436901    1.402557    0.000512
     11          6           0       -2.435657   -1.402436    0.000802
     12          6           0       -3.643162   -0.699885    0.031057
     13          6           0       -3.644563    0.697665    0.029678
     14          6           0       -2.437649    1.402574   -0.001341
     15          1           0       -2.455057   -2.485917    0.005044
     16          1           0       -4.580899   -1.240433    0.059313
     17          1           0       -4.583226    1.235663    0.056481
     18          1           0       -2.459214    2.486154    0.001055
     19          1           0        0.000363   -2.490895   -0.030246
     20          1           0        2.457439    2.486110    0.003987
     21          1           0        4.582424    1.236984    0.059302
     22          1           0        2.456401   -2.485799    0.001025
     23          1           0        4.581572   -1.239110    0.056946
     24          1           0       -0.000299    2.491744   -0.028495
 ---------------------------------------------------------------------
 Rotational constants (GHZ):           2.1678593           0.4584167           0.3784604
 Leave Link  202 at Fri Oct 18 14:37:08 2024, MaxMem=   104857600 cpu:               0.1 elap:               0.0
 (Enter /curc/sw/install/gaussian/g16_c.02/g16/l301.exe)
 Standard basis: CC-pVDZ (5D, 7F)
 Ernie: Thresh=  0.10000D-02 Tol=  0.10000D-05 Strict=F.
 Ernie:  28 primitive shells out of 358 were deleted.
 There are   260 symmetry adapted cartesian basis functions of A   symmetry.
 There are   246 symmetry adapted basis functions of A   symmetry.
   246 basis functions,   532 primitive gaussians,   260 cartesian basis functions
    47 alpha electrons       47 beta electrons
       nuclear repulsion energy       769.9353678581 Hartrees.
 IExCor= 1009 DFT=T Ex=PBE Corr=PBE ExCW=0 ScaHFX=  0.000000
 ScaDFX=  1.000000  1.000000  1.000000  1.000000 ScalE2=  1.000000  1.000000
 IRadAn=      5 IRanWt=     -1 IRanGd=            0 ICorTp=0 IEmpDi=  4
 NAtoms=   24 NActive=   24 NUniq=   24 SFac= 1.00D+00 NAtFMM=   60 NAOKFM=F Big=F
 Integral buffers will be    131072 words long.
 Regular integral format.
 Two-electron integral symmetry is turned on.
 Leave Link  301 at Fri Oct 18 14:37:08 2024, MaxMem=   104857600 cpu:               0.1 elap:               0.1
 (Enter /curc/sw/install/gaussian/g16_c.02/g16/l302.exe)
 NPDir=0 NMtPBC=     1 NCelOv=     1 NCel=       1 NClECP=     1 NCelD=      1
         NCelK=      1 NCelE2=     1 NClLst=     1 CellRange=     0.0.
 One-electron integrals computed using PRISM.
 One-electron integral symmetry used in STVInt
 PrsmSu:  requested number of processors reduced to:  28 ShMem   1 Linda.
 NBasis=   246 RedAO= T EigKep=  1.24D-04  NBF=   246
 NBsUse=   246 1.00D-06 EigRej= -1.00D+00 NBFU=   246
 Precomputing XC quadrature grid using
 IXCGrd= 4 IRadAn=           5 IRanWt=          -1 IRanGd=           0 AccXCQ= 0.00D+00.
 Generated NRdTot=       0 NPtTot=           0 NUsed=           0 NTot=          32
 NSgBfM=   260   260   260   260   260 MxSgAt=    24 MxSgA2=    24.
 Leave Link  302 at Fri Oct 18 14:37:09 2024, MaxMem=   104857600 cpu:               5.3 elap:               0.3
 (Enter /curc/sw/install/gaussian/g16_c.02/g16/l303.exe)
 DipDrv:  MaxL=1.
 Leave Link  303 at Fri Oct 18 14:37:09 2024, MaxMem=   104857600 cpu:               0.2 elap:               0.0
 (Enter /curc/sw/install/gaussian/g16_c.02/g16/l308.exe)
 Leave Link  308 at Fri Oct 18 14:37:10 2024, MaxMem=   104857600 cpu:               0.6 elap:               0.1
 (Enter /curc/sw/install/gaussian/g16_c.02/g16/l401.exe)
 ExpMin= 1.22D-01 ExpMax= 6.67D+03 ExpMxC= 2.28D+02 IAcc=3 IRadAn=         5 AccDes= 0.00D+00
 Harris functional with IExCor= 1009 and IRadAn=       5 diagonalized for initial guess.
 HarFok:  IExCor= 1009 AccDes= 0.00D+00 IRadAn=         5 IDoV= 1 UseB2=F ITyADJ=14
 ICtDFT=  3500011 ScaDFX=  1.000000  1.000000  1.000000  1.000000
 FoFCou: FMM=F IPFlag=           0 FMFlag=      100000 FMFlg1=           0
         NFxFlg=           0 DoJE=T BraDBF=F KetDBF=T FulRan=T
         wScrn=  0.000000 ICntrl=       500 IOpCl=  0 I1Cent=   200000004 NGrid=           0
         NMat0=    1 NMatS0=      1 NMatT0=    0 NMatD0=    1 NMtDS0=    0 NMtDT0=    0
 Petite list used in FoFCou.
 Harris En= -539.065183291701    
 JPrj=0 DoOrth=F DoCkMO=F.
 Leave Link  401 at Fri Oct 18 14:37:11 2024, MaxMem=   104857600 cpu:              10.8 elap:               0.5
 (Enter /curc/sw/install/gaussian/g16_c.02/g16/l502.exe)
 Integral symmetry usage will be decided dynamically.
 Closed shell SCF:
 Using DIIS extrapolation, IDIIS=  1040.
 NGot=   104857600 LenX=   104710746 LenY=   104642705
 Requested convergence on RMS density matrix=1.00D-08 within 128 cycles.
 Requested convergence on MAX density matrix=1.00D-06.
 Requested convergence on             energy=1.00D-06.
 No special actions if energy rises.
 Fock matrices will be formed incrementally for  20 cycles.
 Integral accuracy reduced to 1.0D-05 until final iterations.

 Cycle   1  Pass 0  IDiag  1:
 FoFJK:  IHMeth= 1 ICntrl=     500 DoSepK=F KAlg= 0 I1Cent=           0 FoldK=F
 IRaf= 910000000 NMat=       1 IRICut=       1 DoRegI=T DoRafI=F ISym2E= 0 IDoP0=0 IntGTp=1.
 FoFCou: FMM=F IPFlag=           0 FMFlag=      100000 FMFlg1=           0
         NFxFlg=           0 DoJE=T BraDBF=F KetDBF=F FulRan=T
         wScrn=  0.000000 ICntrl=       500 IOpCl=  0 I1Cent=           0 NGrid=           0
         NMat0=    1 NMatS0=      1 NMatT0=    0 NMatD0=    1 NMtDS0=    0 NMtDT0=    0
 Symmetry not used in FoFCou.
 E= -538.643304432110    
 DIIS: error= 3.42D-02 at cycle   1 NSaved=   1.
 NSaved= 1 IEnMin= 1 EnMin= -538.643304432110     IErMin= 1 ErrMin= 3.42D-02
 ErrMax= 3.42D-02  0.00D+00 EMaxC= 1.00D-01 BMatC= 1.68D-01 BMatP= 1.68D-01
 IDIUse=3 WtCom= 6.58D-01 WtEn= 3.42D-01
 Coeff-Com:  0.100D+01
 Coeff-En:   0.100D+01
 Coeff:      0.100D+01
 Gap=     0.077 Goal=   None    Shift=    0.000
 GapD=    0.077 DampG=0.500 DampE=0.500 DampFc=0.2500 IDamp=-1.
 Damping current iteration by 2.50D-01
 RMSDP=6.31D-03 MaxDP=1.39D-01              OVMax= 1.83D-01

 Cycle   2  Pass 0  IDiag  1:
 RMSU=  1.45D-03    CP:  9.73D-01
 E= -538.723062116577     Delta-E=       -0.079757684467 Rises=F Damp=T
 DIIS: error= 1.66D-02 at cycle   2 NSaved=   2.
 NSaved= 2 IEnMin= 2 EnMin= -538.723062116577     IErMin= 2 ErrMin= 1.66D-02
 ErrMax= 1.66D-02  0.00D+00 EMaxC= 1.00D-01 BMatC= 3.78D-02 BMatP= 1.68D-01
 IDIUse=3 WtCom= 8.34D-01 WtEn= 1.66D-01
 Coeff-Com: -0.792D+00 0.179D+01
 Coeff-En:   0.000D+00 0.100D+01
 Coeff:     -0.660D+00 0.166D+01
 Gap=     0.077 Goal=   None    Shift=    0.000
 RMSDP=2.38D-03 MaxDP=7.88D-02 DE=-7.98D-02 OVMax= 1.03D-01

 Cycle   3  Pass 0  IDiag  1:
 RMSU=  1.43D-03    CP:  9.29D-01  2.12D+00
 E= -538.857502909977     Delta-E=       -0.134440793401 Rises=F Damp=F
 DIIS: error= 5.27D-03 at cycle   3 NSaved=   3.
 NSaved= 3 IEnMin= 3 EnMin= -538.857502909977     IErMin= 3 ErrMin= 5.27D-03
 ErrMax= 5.27D-03  0.00D+00 EMaxC= 1.00D-01 BMatC= 4.15D-03 BMatP= 3.78D-02
 IDIUse=3 WtCom= 9.47D-01 WtEn= 5.27D-02
 Coeff-Com: -0.321D+00 0.758D+00 0.563D+00
 Coeff-En:   0.000D+00 0.000D+00 0.100D+01
 Coeff:     -0.304D+00 0.718D+00 0.586D+00
 Gap=     0.077 Goal=   None    Shift=    0.000
 RMSDP=5.48D-04 MaxDP=1.74D-02 DE=-1.34D-01 OVMax= 2.31D-02

 Cycle   4  Pass 0  IDiag  1:
 RMSU=  3.24D-04    CP:  9.35D-01  1.98D+00  7.38D-01
 E= -538.860364159086     Delta-E=       -0.002861249108 Rises=F Damp=F
 DIIS: error= 3.33D-03 at cycle   4 NSaved=   4.
 NSaved= 4 IEnMin= 4 EnMin= -538.860364159086     IErMin= 4 ErrMin= 3.33D-03
 ErrMax= 3.33D-03  0.00D+00 EMaxC= 1.00D-01 BMatC= 1.49D-03 BMatP= 4.15D-03
 IDIUse=3 WtCom= 9.67D-01 WtEn= 3.33D-02
 Coeff-Com: -0.118D+00 0.280D+00 0.376D+00 0.461D+00
 Coeff-En:   0.000D+00 0.000D+00 0.262D+00 0.738D+00
 Coeff:     -0.114D+00 0.271D+00 0.373D+00 0.471D+00
 Gap=     0.077 Goal=   None    Shift=    0.000
 RMSDP=1.71D-04 MaxDP=7.13D-03 DE=-2.86D-03 OVMax= 1.04D-02

 Cycle   5  Pass 0  IDiag  1:
 RMSU=  8.75D-05    CP:  9.34D-01  2.00D+00  7.75D-01  5.91D-01
 E= -538.861786405835     Delta-E=       -0.001422246749 Rises=F Damp=F
 DIIS: error= 3.68D-04 at cycle   5 NSaved=   5.
 NSaved= 5 IEnMin= 5 EnMin= -538.861786405835     IErMin= 5 ErrMin= 3.68D-04
 ErrMax= 3.68D-04  0.00D+00 EMaxC= 1.00D-01 BMatC= 3.47D-05 BMatP= 1.49D-03
 IDIUse=3 WtCom= 9.96D-01 WtEn= 3.68D-03
 Coeff-Com: -0.258D-01 0.558D-01 0.967D-01 0.194D+00 0.679D+00
 Coeff-En:   0.000D+00 0.000D+00 0.000D+00 0.000D+00 0.100D+01
 Coeff:     -0.257D-01 0.556D-01 0.963D-01 0.194D+00 0.680D+00
 Gap=     0.077 Goal=   None    Shift=    0.000
 RMSDP=5.09D-05 MaxDP=1.83D-03 DE=-1.42D-03 OVMax= 7.00D-03

 Cycle   6  Pass 0  IDiag  1:
 RMSU=  4.12D-05    CP:  9.34D-01  2.01D+00  7.64D-01  6.48D-01  8.40D-01
 E= -538.861782206151     Delta-E=        0.000004199684 Rises=F Damp=F
 DIIS: error= 5.11D-04 at cycle   6 NSaved=   6.
 NSaved= 6 IEnMin= 5 EnMin= -538.861786405835     IErMin= 5 ErrMin= 3.68D-04
 ErrMax= 5.11D-04  0.00D+00 EMaxC= 1.00D-01 BMatC= 3.28D-05 BMatP= 3.47D-05
 IDIUse=3 WtCom= 9.96D-01 WtEn= 3.68D-03
 Coeff-Com: -0.139D-01 0.282D-01 0.538D-01 0.127D+00 0.549D+00 0.256D+00
 Coeff-En:   0.000D+00 0.000D+00 0.000D+00 0.000D+00 0.523D+00 0.477D+00
 Coeff:     -0.139D-01 0.281D-01 0.536D-01 0.126D+00 0.549D+00 0.257D+00
 Gap=     0.077 Goal=   None    Shift=    0.000
 RMSDP=3.10D-05 MaxDP=1.56D-03 DE= 4.20D-06 OVMax= 5.57D-03

 Cycle   7  Pass 0  IDiag  1:
 RMSU=  1.27D-05    CP:  9.34D-01  2.01D+00  7.65D-01  6.48D-01  8.97D-01
                    CP:  3.25D-01
 E= -538.861825556938     Delta-E=       -0.000043350787 Rises=F Damp=F
 DIIS: error= 8.26D-05 at cycle   7 NSaved=   7.
 NSaved= 7 IEnMin= 7 EnMin= -538.861825556938     IErMin= 7 ErrMin= 8.26D-05
 ErrMax= 8.26D-05  0.00D+00 EMaxC= 1.00D-01 BMatC= 8.13D-07 BMatP= 3.28D-05
 IDIUse=1 WtCom= 1.00D+00 WtEn= 0.00D+00
 Coeff-Com: -0.520D-02 0.985D-02 0.202D-01 0.523D-01 0.255D+00 0.162D+00
 Coeff-Com:  0.506D+00
 Coeff:     -0.520D-02 0.985D-02 0.202D-01 0.523D-01 0.255D+00 0.162D+00
 Coeff:      0.506D+00
 Gap=     0.077 Goal=   None    Shift=    0.000
 RMSDP=7.52D-06 MaxDP=3.40D-04 DE=-4.34D-05 OVMax= 1.18D-03

 Initial convergence to 1.0D-05 achieved.  Increase integral accuracy.
 Cycle   8  Pass 1  IDiag  1:
 E= -538.861803201853     Delta-E=        0.000022355086 Rises=F Damp=F
 DIIS: error= 1.91D-04 at cycle   1 NSaved=   1.
 NSaved= 1 IEnMin= 1 EnMin= -538.861803201853     IErMin= 1 ErrMin= 1.91D-04
 ErrMax= 1.91D-04  0.00D+00 EMaxC= 1.00D-01 BMatC= 2.03D-06 BMatP= 2.03D-06
 IDIUse=3 WtCom= 9.98D-01 WtEn= 1.91D-03
 Coeff-Com:  0.100D+01
 Coeff-En:   0.100D+01
 Coeff:      0.100D+01
 Gap=     0.077 Goal=   None    Shift=    0.000
 RMSDP=7.52D-06 MaxDP=3.40D-04 DE= 2.24D-05 OVMax= 2.04D-03

 Cycle   9  Pass 1  IDiag  1:
 RMSU=  1.51D-04    CP:  1.00D+00
 E= -538.861797855794     Delta-E=        0.000005346059 Rises=F Damp=F
 DIIS: error= 2.12D-04 at cycle   2 NSaved=   2.
 NSaved= 2 IEnMin= 1 EnMin= -538.861803201853     IErMin= 1 ErrMin= 1.91D-04
 ErrMax= 2.12D-04  0.00D+00 EMaxC= 1.00D-01 BMatC= 5.67D-06 BMatP= 2.03D-06
 IDIUse=3 WtCom= 4.07D-01 WtEn= 5.93D-01
 Coeff-Com:  0.663D+00 0.337D+00
 Coeff-En:   0.781D+00 0.219D+00
 Coeff:      0.733D+00 0.267D+00
 Gap=     0.077 Goal=   None    Shift=    0.000
 RMSDP=1.31D-05 MaxDP=6.24D-04 DE= 5.35D-06 OVMax= 2.03D-03

 Cycle  10  Pass 1  IDiag  1:
 RMSU=  1.31D-05    CP:  1.00D+00  9.94D-01
 E= -538.861804838952     Delta-E=       -0.000006983158 Rises=F Damp=F
 DIIS: error= 4.86D-05 at cycle   3 NSaved=   3.
 NSaved= 3 IEnMin= 3 EnMin= -538.861804838952     IErMin= 3 ErrMin= 4.86D-05
 ErrMax= 4.86D-05  0.00D+00 EMaxC= 1.00D-01 BMatC= 2.30D-07 BMatP= 2.03D-06
 IDIUse=1 WtCom= 1.00D+00 WtEn= 0.00D+00
 Coeff-Com:  0.710D-01 0.153D+00 0.776D+00
 Coeff:      0.710D-01 0.153D+00 0.776D+00
 Gap=     0.077 Goal=   None    Shift=    0.000
 RMSDP=5.75D-06 MaxDP=2.94D-04 DE=-6.98D-06 OVMax= 1.05D-03

 Cycle  11  Pass 1  IDiag  1:
 RMSU=  4.92D-06    CP:  1.00D+00  9.97D-01  7.76D-01
 E= -538.861804344698     Delta-E=        0.000000494254 Rises=F Damp=F
 DIIS: error= 6.36D-05 at cycle   4 NSaved=   4.
 NSaved= 4 IEnMin= 3 EnMin= -538.861804838952     IErMin= 3 ErrMin= 4.86D-05
 ErrMax= 6.36D-05  0.00D+00 EMaxC= 1.00D-01 BMatC= 6.13D-07 BMatP= 2.30D-07
 IDIUse=1 WtCom= 1.00D+00 WtEn= 0.00D+00
 Coeff-Com:  0.149D-02 0.984D-01 0.647D+00 0.253D+00
 Coeff:      0.149D-02 0.984D-01 0.647D+00 0.253D+00
 Gap=     0.077 Goal=   None    Shift=    0.000
 RMSDP=3.79D-06 MaxDP=1.83D-04 DE= 4.94D-07 OVMax= 6.19D-04

 Cycle  12  Pass 1  IDiag  1:
 RMSU=  2.74D-07    CP:  1.00D+00  9.96D-01  8.50D-01  2.58D-01
 E= -538.861805145135     Delta-E=       -0.000000800437 Rises=F Damp=F
 DIIS: error= 3.51D-06 at cycle   5 NSaved=   5.
 NSaved= 5 IEnMin= 5 EnMin= -538.861805145135     IErMin= 5 ErrMin= 3.51D-06
 ErrMax= 3.51D-06  0.00D+00 EMaxC= 1.00D-01 BMatC= 1.71D-09 BMatP= 2.30D-07
 IDIUse=1 WtCom= 1.00D+00 WtEn= 0.00D+00
 Coeff-Com:  0.154D-03 0.604D-01 0.396D+00 0.157D+00 0.387D+00
 Coeff:      0.154D-03 0.604D-01 0.396D+00 0.157D+00 0.387D+00
 Gap=     0.077 Goal=   None    Shift=    0.000
 RMSDP=1.93D-07 MaxDP=9.48D-06 DE=-8.00D-07 OVMax= 1.28D-05

 Cycle  13  Pass 1  IDiag  1:
 RMSU=  6.63D-08    CP:  1.00D+00  9.96D-01  8.47D-01  2.59D-01  3.79D-01
 E= -538.861805146867     Delta-E=       -0.000000001732 Rises=F Damp=F
 DIIS: error= 5.73D-07 at cycle   6 NSaved=   6.
 NSaved= 6 IEnMin= 6 EnMin= -538.861805146867     IErMin= 6 ErrMin= 5.73D-07
 ErrMax= 5.73D-07  0.00D+00 EMaxC= 1.00D-01 BMatC= 6.10D-11 BMatP= 1.71D-09
 IDIUse=1 WtCom= 1.00D+00 WtEn= 0.00D+00
 Coeff-Com: -0.732D-05 0.274D-01 0.178D+00 0.702D-01 0.220D+00 0.504D+00
 Coeff:     -0.732D-05 0.274D-01 0.178D+00 0.702D-01 0.220D+00 0.504D+00
 Gap=     0.077 Goal=   None    Shift=    0.000
 RMSDP=3.81D-08 MaxDP=1.37D-06 DE=-1.73D-09 OVMax= 2.70D-06

 Cycle  14  Pass 1  IDiag  1:
 RMSU=  2.26D-08    CP:  1.00D+00  9.96D-01  8.47D-01  2.57D-01  4.23D-01
                    CP:  6.14D-01
 E= -538.861805146920     Delta-E=       -0.000000000054 Rises=F Damp=F
 DIIS: error= 1.27D-07 at cycle   7 NSaved=   7.
 NSaved= 7 IEnMin= 7 EnMin= -538.861805146920     IErMin= 7 ErrMin= 1.27D-07
 ErrMax= 1.27D-07  0.00D+00 EMaxC= 1.00D-01 BMatC= 4.74D-12 BMatP= 6.10D-11
 IDIUse=1 WtCom= 1.00D+00 WtEn= 0.00D+00
 Coeff-Com: -0.929D-05 0.159D-01 0.103D+00 0.406D-01 0.132D+00 0.331D+00
 Coeff-Com:  0.377D+00
 Coeff:     -0.929D-05 0.159D-01 0.103D+00 0.406D-01 0.132D+00 0.331D+00
 Coeff:      0.377D+00
 Gap=     0.077 Goal=   None    Shift=    0.000
 RMSDP=1.25D-08 MaxDP=5.32D-07 DE=-5.37D-11 OVMax= 1.22D-06

 Cycle  15  Pass 1  IDiag  1:
 RMSU=  7.78D-09    CP:  1.00D+00  9.96D-01  8.47D-01  2.57D-01  4.22D-01
                    CP:  6.31D-01  5.73D-01
 E= -538.861805146937     Delta-E=       -0.000000000017 Rises=F Damp=F
 DIIS: error= 4.55D-08 at cycle   8 NSaved=   8.
 NSaved= 8 IEnMin= 8 EnMin= -538.861805146937     IErMin= 8 ErrMin= 4.55D-08
 ErrMax= 4.55D-08  0.00D+00 EMaxC= 1.00D-01 BMatC= 4.67D-13 BMatP= 4.74D-12
 IDIUse=1 WtCom= 1.00D+00 WtEn= 0.00D+00
 Coeff-Com: -0.549D-05 0.712D-02 0.462D-01 0.182D-01 0.606D-01 0.159D+00
 Coeff-Com:  0.258D+00 0.451D+00
 Coeff:     -0.549D-05 0.712D-02 0.462D-01 0.182D-01 0.606D-01 0.159D+00
 Coeff:      0.258D+00 0.451D+00
 Gap=     0.077 Goal=   None    Shift=    0.000
 RMSDP=3.79D-09 MaxDP=1.68D-07 DE=-1.68D-11 OVMax= 3.46D-07

 SCF Done:  E(RPBE-PBE) =  -538.861805147     A.U. after   15 cycles
            NFock= 15  Conv=0.38D-08     -V/T= 2.0054
 KE= 5.359494331621D+02 PE=-2.790141983626D+03 EE= 9.453953774588D+02
 Leave Link  502 at Fri Oct 18 14:37:19 2024, MaxMem=   104857600 cpu:             246.8 elap:               8.6
 (Enter /curc/sw/install/gaussian/g16_c.02/g16/l801.exe)
 DoSCS=F DFT=T ScalE2(SS,OS)=  1.000000  1.000000
 ExpMin= 1.22D-01 ExpMax= 6.67D+03 ExpMxC= 2.28D+02 IAcc=3 IRadAn=         5 AccDes= 0.00D+00
 HarFok:  IExCor=  205 AccDes= 0.00D+00 IRadAn=         5 IDoV=-2 UseB2=F ITyADJ=14
 ICtDFT= 12500011 ScaDFX=  1.000000  1.000000  1.000000  1.000000
 Largest valence mixing into a core orbital is  3.27D-05
 Largest core mixing into a valence orbital is  1.93D-05
 Range of M.O.s used for correlation:    15   246
 NBasis=   246 NAE=    47 NBE=    47 NFC=    14 NFV=     0
 NROrb=    232 NOA=    33 NOB=    33 NVA=   199 NVB=   199

 **** Warning!!: The largest alpha MO coefficient is  0.16027535D+02


 **** Warning!!: The smallest alpha delta epsilon is  0.76970850D-01

 Leave Link  801 at Fri Oct 18 14:37:19 2024, MaxMem=   104857600 cpu:               1.0 elap:               0.1
 (Enter /curc/sw/install/gaussian/g16_c.02/g16/l914.exe)
 RHF ground state
 Two-electron integrals replicated using symmetry.
 MDV=   104857600 DFT=T DoStab=F Mixed=F DoRPA=T DoScal=T NonHer=F
 Making orbital integer symmetry assigments:
 Orbital symmetries:
       Occupied  (A) (A) (A) (A) (A) (A) (A) (A) (A) (A) (A) (A)
                 (A) (A) (A) (A) (A) (A) (A) (A) (A) (A) (A) (A)
                 (A) (A) (A) (A) (A) (A) (A) (A) (A) (A) (A) (A)
                 (A) (A) (A) (A) (A) (A) (A) (A) (A) (A) (A)
       Virtual   (A) (A) (A) (A) (A) (A) (A) (A) (A) (A) (A) (A)
                 (A) (A) (A) (A) (A) (A) (A) (A) (A) (A) (A) (A)
                 (A) (A) (A) (A) (A) (A) (A) (A) (A) (A) (A) (A)
                 (A) (A) (A) (A) (A) (A) (A) (A) (A) (A) (A) (A)
                 (A) (A) (A) (A) (A) (A) (A) (A) (A) (A) (A) (A)
                 (A) (A) (A) (A) (A) (A) (A) (A) (A) (A) (A) (A)
                 (A) (A) (A) (A) (A) (A) (A) (A) (A) (A) (A) (A)
                 (A) (A) (A) (A) (A) (A) (A) (A) (A) (A) (A) (A)
                 (A) (A) (A) (A) (A) (A) (A) (A) (A) (A) (A) (A)
                 (A) (A) (A) (A) (A) (A) (A) (A) (A) (A) (A) (A)
                 (A) (A) (A) (A) (A) (A) (A) (A) (A) (A) (A) (A)
                 (A) (A) (A) (A) (A) (A) (A) (A) (A) (A) (A) (A)
                 (A) (A) (A) (A) (A) (A) (A) (A) (A) (A) (A) (A)
                 (A) (A) (A) (A) (A) (A) (A) (A) (A) (A) (A) (A)
                 (A) (A) (A) (A) (A) (A) (A) (A) (A) (A) (A) (A)
                 (A) (A) (A) (A) (A) (A) (A) (A) (A) (A) (A) (A)
                 (A) (A) (A) (A) (A) (A) (A)
   160 initial guesses have been made.
 Convergence on wavefunction:    0.001000000000000
 Davidson Disk Diagonalization:  ConvIn= 1.00D-03 SkipCon=T Conv= 1.00D-03.
 Max sub-space:  2000 roots to seek:   160 dimension of matrix:        13134
 Iteration     1 Dimension   160 NMult     0 NNew    160
 CISAX will form    12 AO SS matrices at one time.
 NMat=    12 NSing=    12 JSym2X= 0.
 FoFJK:  IHMeth= 1 ICntrl=     500 DoSepK=F KAlg= 0 I1Cent=           0 FoldK=F
 IRaf= 910000000 NMat=      12 IRICut=       1 DoRegI=T DoRafI=F ISym2E= 0 IDoP0=0 IntGTp=1.
 FoFCou: FMM=F IPFlag=           0 FMFlag=      100000 FMFlg1=           0
         NFxFlg=           0 DoJE=F BraDBF=F KetDBF=F FulRan=T
         wScrn=  0.000000 ICntrl=       500 IOpCl=  0 I1Cent=           0 NGrid=           0
         NMat0=   12 NMatS0=     12 NMatT0=    0 NMatD0=   12 NMtDS0=    0 NMtDT0=    0
 Symmetry not used in FoFCou.
 NMat=    12 NSing=    12 JSym2X= 0.
 NMat=    12 NSing=    12 JSym2X= 0.
 NMat=    12 NSing=    12 JSym2X= 0.
 NMat=    12 NSing=    12 JSym2X= 0.
 NMat=    12 NSing=    12 JSym2X= 0.
 NMat=    12 NSing=    12 JSym2X= 0.
 NMat=    12 NSing=    12 JSym2X= 0.
 NMat=    12 NSing=    12 JSym2X= 0.
 NMat=    12 NSing=    12 JSym2X= 0.
 NMat=    12 NSing=    12 JSym2X= 0.
 NMat=    12 NSing=    12 JSym2X= 0.
 NMat=    12 NSing=    12 JSym2X= 0.
 NMat=     4 NSing=     4 JSym2X= 0.
 New state      3 was old state      4
 New state      4 was old state      6
 New state      6 was old state      8
 New state      7 was old state     10
 New state      8 was old state     11
 New state      9 was old state     14
 New state     10 was old state     15
 New state     11 was old state     13
 New state     12 was old state      3
 New state     13 was old state     16
 New state     14 was old state     17
 New state     15 was old state     18
 New state     16 was old state     20
 New state     17 was old state     19
 New state     18 was old state      9
 New state     19 was old state     21
 New state     20 was old state     23
 New state     21 was old state     24
 New state     22 was old state     25
 New state     23 was old state     27
 New state     24 was old state     28
 New state     25 was old state     35
 New state     26 was old state     31
 New state     27 was old state     30
 New state     28 was old state     34
 New state     29 was old state     32
 New state     30 was old state     33
 New state     31 was old state     36
 New state     32 was old state     37
 New state     33 was old state     41
 New state     34 was old state     39
 New state     35 was old state      7
 New state     36 was old state     42
 New state     37 was old state     44
 New state     38 was old state     43
 New state     39 was old state     52
 New state     40 was old state     45
 Excitation Energies [eV] at current iteration:
 Root      1 :     2.915616714001640
 Root      2 :     3.664850254147184
 Root      3 :     3.760840333538915
 Root      4 :     4.690579690130108
 Root      5 :     4.707765029175460
 Root      6 :     5.066609025677359
 Root      7 :     5.236416777548674
 Root      8 :     5.326640353743172
 Root      9 :     5.400373550092776
 Root     10 :     5.524227452310712
 Root     11 :     5.587885229049540
 Root     12 :     5.589552983529853
 Root     13 :     5.832464048786177
 Root     14 :     5.943335930580573
 Root     15 :     6.006871662213908
 Root     16 :     6.155242532825708
 Root     17 :     6.231914758212417
 Root     18 :     6.303847731373809
 Root     19 :     6.318509259636574
 Root     20 :     6.369670185264747
 Root     21 :     6.526863884696704
 Root     22 :     6.587239658641048
 Root     23 :     6.693414996833638
 Root     24 :     6.789341246923609
 Root     25 :     6.878511255790829
 Root     26 :     6.914614854570075
 Root     27 :     6.914901103674627
 Root     28 :     6.915726864217762
 Root     29 :     6.916169625305354
 Root     30 :     6.928867382501442
 Root     31 :     7.118055608559152
 Root     32 :     7.181673232524974
 Root     33 :     7.343883277694800
 Root     34 :     7.350379304244298
 Root     35 :     7.364679484838541
 Root     36 :     7.396026732975508
 Root     37 :     7.446908539891792
 Root     38 :     7.468827453027073
 Root     39 :     7.491031932782072
 Root     40 :     7.511918567447229
 Root     41 :     7.530046014954340
 Root     42 :     7.536973357476297
 Root     43 :     7.563590502431975
 Root     44 :     7.584930884211731
 Root     45 :     7.596790451597241
 Root     46 :     7.600943617850734
 Root     47 :     7.648108603799039
 Root     48 :     7.699238370604652
 Root     49 :     7.707366893942050
 Root     50 :     7.738857844833614
 Root     51 :     7.927160131386019
 Root     52 :     7.968212996186351
 Root     53 :     7.995277155918188
 Root     54 :     8.068688042205908
 Root     55 :     8.132279251733250
 Root     56 :     8.230543565339415
 Root     57 :     8.266519594958972
 Root     58 :     8.329069390289948
 Root     59 :     8.343890751325288
 Root     60 :     8.354140521256522
 Root     61 :     8.402202660653598
 Root     62 :     8.424025558201780
 Root     63 :     8.438952015641631
 Root     64 :     8.473332310242327
 Root     65 :     8.476968079793572
 Root     66 :     8.503761556387976
 Root     67 :     8.514598267838199
 Root     68 :     8.593391442454298
 Root     69 :     8.625347958878448
 Root     70 :     8.635097996164406
 Root     71 :     8.640748484352587
 Root     72 :     8.646175032795306
 Root     73 :     8.717851546356023
 Root     74 :     8.718253317622118
 Root     75 :     8.718495250324285
 Root     76 :     8.776131609792506
 Root     77 :     8.789765135489542
 Root     78 :     8.815786133566855
 Root     79 :     8.844459625685996
 Root     80 :     8.851037918546851
 Root     81 :     8.870861990243695
 Root     82 :     8.882610291480761
 Root     83 :     8.906071442642073
 Root     84 :     8.943963828307973
 Root     85 :     8.950429642370310
 Root     86 :     8.965261710650887
 Root     87 :     8.980341590714749
 Root     88 :     9.035813137113086
 Root     89 :     9.083452747965978
 Root     90 :     9.091541492591752
 Root     91 :     9.116412402534998
 Root     92 :     9.151423123687275
 Root     93 :     9.161628768305720
 Root     94 :     9.166738322887023
 Root     95 :     9.168571909465145
 Root     96 :     9.247109270448327
 Root     97 :     9.253766794124081
 Root     98 :     9.285665952131115
 Root     99 :     9.290656491371523
 Root    100 :     9.309299485456846
 Root    101 :     9.342702494208323
 Root    102 :     9.360102898180370
 Root    103 :     9.421285743761262
 Root    104 :     9.458720665951699
 Root    105 :     9.520225527157182
 Root    106 :     9.569872258405118
 Root    107 :     9.571973698664676
 Root    108 :     9.576229214346890
 Root    109 :     9.635219836869176
 Root    110 :     9.655669047216211
 Root    111 :     9.655832770493854
 Root    112 :     9.674288351269345
 Root    113 :     9.674953128634911
 Root    114 :     9.694553297381983
 Root    115 :     9.720288593424923
 Root    116 :     9.778733054961174
 Root    117 :     9.804482052379258
 Root    118 :     9.838196240964155
 Root    119 :     9.880695729216955
 Root    120 :     9.881534498927866
 Root    121 :     9.945088278678009
 Root    122 :     9.950294814373988
 Root    123 :     9.974819507306895
 Root    124 :    10.033985077097022
 Root    125 :    10.038368594871104
 Root    126 :    10.041750764077916
 Root    127 :    10.117890178150299
 Root    128 :    10.139780792660822
 Root    129 :    10.153331429956721
 Root    130 :    10.162336194670461
 Root    131 :    10.173215292381585
 Root    132 :    10.203433766469466
 Root    133 :    10.231609888700627
 Root    134 :    10.239775445885343
 Root    135 :    10.261820185496141
 Root    136 :    10.265874672517162
 Root    137 :    10.269721571314131
 Root    138 :    10.271849192632159
 Root    139 :    10.330072503071996
 Root    140 :    10.337423152476946
 Root    141 :    10.368821194923843
 Root    142 :    10.379273588178796
 Root    143 :    10.392006282957091
 Root    144 :    10.397353656619321
 Root    145 :    10.402799614742177
 Root    146 :    10.439616962206467
 Root    147 :    10.446775149706351
 Root    148 :    10.449309688839937
 Root    149 :    10.458533292593783
 Root    150 :    10.512858580954918
 Root    151 :    10.633798698855522
 Root    152 :    10.751746082526637
 Root    153 :    10.798578107111505
 Root    154 :    10.819678239529104
 Root    155 :    10.917226526452621
 Root    156 :    10.952173270245272
 Root    157 :    11.132784837357161
 Root    158 :    11.510367187302311
 Root    159 :    11.667410531425498
 Root    160 :    12.504647730423544
 Iteration     2 Dimension   320 NMult   160 NNew    160
 CISAX will form    12 AO SS matrices at one time.
 NMat=    12 NSing=    12 JSym2X= 0.
 NMat=    12 NSing=    12 JSym2X= 0.
 NMat=    12 NSing=    12 JSym2X= 0.
 NMat=    12 NSing=    12 JSym2X= 0.
 NMat=    12 NSing=    12 JSym2X= 0.
 NMat=    12 NSing=    12 JSym2X= 0.
 NMat=    12 NSing=    12 JSym2X= 0.
 NMat=    12 NSing=    12 JSym2X= 0.
 NMat=    12 NSing=    12 JSym2X= 0.
 NMat=    12 NSing=    12 JSym2X= 0.
 NMat=    12 NSing=    12 JSym2X= 0.
 NMat=    12 NSing=    12 JSym2X= 0.
 NMat=    12 NSing=    12 JSym2X= 0.
 NMat=     4 NSing=     4 JSym2X= 0.
 Root      1 not converged, maximum delta is    0.036198445455750
 Root      2 not converged, maximum delta is    0.007199182747542
 Root      3 not converged, maximum delta is    0.011957915322987
 New state      4 was old state      5
 Root      4 not converged, maximum delta is    0.058528113815754
 New state      5 was old state      4
 Root      5 not converged, maximum delta is    0.017429192447725
 Root      6 not converged, maximum delta is    0.059929975711099
 New state      7 was old state     12
 Root      7 not converged, maximum delta is    0.285024135036905
 New state      8 was old state      7
 Root      8 not converged, maximum delta is    0.003506026949919
 New state      9 was old state      8
 Root      9 not converged, maximum delta is    0.044545438630473
 Root     10 not converged, maximum delta is    0.076117307249808
 New state     11 was old state      9
 Root     11 not converged, maximum delta is    0.003671291358925
 New state     12 was old state     11
 Root     12 not converged, maximum delta is    0.275268889985110
 New state     13 was old state     18
 Root     13 not converged, maximum delta is    0.094186972761658
 New state     14 was old state     13
 Root     14 not converged, maximum delta is    0.003702962333237
 New state     15 was old state     14
 Root     15 not converged, maximum delta is    0.013454524508324
 New state     16 was old state     15
 Root     16 not converged, maximum delta is    0.003385317465886
 New state     17 was old state     16
 Root     17 not converged, maximum delta is    0.004998147158514
 New state     18 was old state     17
 Root     18 not converged, maximum delta is    0.042014754037071
 Root     19 not converged, maximum delta is    0.047164354160858
 Root     20 not converged, maximum delta is    0.018458171375824
 New state     21 was old state     35
 Root     21 not converged, maximum delta is    0.127202229544697
 New state     22 was old state     21
 Root     22 not converged, maximum delta is    0.052026758895095
 New state     23 was old state     22
 Root     23 not converged, maximum delta is    0.048839280239226
 New state     24 was old state     23
 Root     24 not converged, maximum delta is    0.118834432331775
 New state     25 was old state     24
 Root     25 not converged, maximum delta is    0.005549784986036
 New state     26 was old state     25
 Root     26 not converged, maximum delta is    0.120591342843402
 Root     27 not converged, maximum delta is    0.062976730980044
 New state     28 was old state     26
 Root     28 not converged, maximum delta is    0.183639739046350
 Root     29 not converged, maximum delta is    0.028384798756015
 New state     30 was old state     28
 Root     30 not converged, maximum delta is    0.076794914844055
 New state     31 was old state     30
 Root     31 not converged, maximum delta is    0.193561095052186
 New state     32 was old state     41
 Root     32 not converged, maximum delta is    0.417954777242753
 Root     33 not converged, maximum delta is    0.274867627202287
 New state     34 was old state     31
 Root     34 not converged, maximum delta is    0.051947533141499
 New state     35 was old state     32
 Root     35 not converged, maximum delta is    0.051041796995235
 New state     36 was old state     34
 Root     36 not converged, maximum delta is    0.018578110973818
 New state     37 was old state     36
 Root     37 not converged, maximum delta is    0.035392658990048
 New state     38 was old state     39
 Root     38 not converged, maximum delta is    0.063769547985847
 New state     39 was old state     37
 Root     39 not converged, maximum delta is    0.016629806739618
 New state     40 was old state     38
 Root     40 not converged, maximum delta is    0.014280219961555
 Excitation Energies [eV] at current iteration:
 Root      1 :     2.716979710569533   Change is   -0.198637003432107
 Root      2 :     3.635451668840629   Change is   -0.029398585306555
 Root      3 :     3.754010653860701   Change is   -0.006829679678214
 Root      4 :     4.465396660980105   Change is   -0.242368368195355
 Root      5 :     4.680751549193578   Change is   -0.009828140936529
 Root      6 :     5.033093589322228   Change is   -0.033515436355131
 Root      7 :     5.042453047277561   Change is   -0.547099936252291
 Root      8 :     5.223486819645260   Change is   -0.012929957903413
 Root      9 :     5.288512376635003   Change is   -0.038127977108168
 Root     10 :     5.329991719576234   Change is   -0.194235732734479
 Root     11 :     5.393626027554064   Change is   -0.006747522538712
 Root     12 :     5.472697084390497   Change is   -0.115188144659043
 Root     13 :     5.819269707520923   Change is   -0.484578023852886
 Root     14 :     5.824617876464685   Change is   -0.007846172321492
 Root     15 :     5.940740128676068   Change is   -0.002595801904505
 Root     16 :     6.001671641639413   Change is   -0.005200020574495
 Root     17 :     6.150410435730262   Change is   -0.004832097095446
 Root     18 :     6.187653801893043   Change is   -0.044260956319374
 Root     19 :     6.304075751090477   Change is   -0.014433508546097
 Root     20 :     6.356246995289999   Change is   -0.013423189974748
 Root     21 :     6.443651123153575   Change is   -0.921028361684965
 Root     22 :     6.459839395587407   Change is   -0.067024489109297
 Root     23 :     6.565185902836727   Change is   -0.022053755804321
 Root     24 :     6.571285353943867   Change is   -0.122129642889771
 Root     25 :     6.769679450783053   Change is   -0.019661796140556
 Root     26 :     6.819615970240545   Change is   -0.058895285550283
 Root     27 :     6.902493234918551   Change is   -0.012407868756075
 Root     28 :     6.906441326105247   Change is   -0.008173528464829
 Root     29 :     6.910020720542873   Change is   -0.006148904762482
 Root     30 :     6.912198799267193   Change is   -0.003528064950569
 Root     31 :     6.914972367836119   Change is   -0.013895014665324
 Root     32 :     7.036822704423098   Change is   -0.493223310531243
 Root     33 :     7.058773934989549   Change is   -0.285109342705250
 Root     34 :     7.110184061626498   Change is   -0.007871546932654
 Root     35 :     7.159439188677156   Change is   -0.022234043847818
 Root     36 :     7.341655446745917   Change is   -0.008723857498381
 Root     37 :     7.389427432368261   Change is   -0.006599300607247
 Root     38 :     7.407446055291319   Change is   -0.083585877490752
 Root     39 :     7.443983551488362   Change is   -0.002924988403430
 Root     40 :     7.457404680133400   Change is   -0.011422772893673
 Root     41 :     7.478460240447963   Change is   -0.788059354511009
 Root     42 :     7.504457458836058   Change is   -0.007461108611171
 Root     43 :     7.529308918736892   Change is   -0.007664438739405
 Root     44 :     7.553027308902948   Change is   -0.010563193529027
 Root     45 :     7.583795666414749   Change is   -0.001135217796983
 Root     46 :     7.584580118793535   Change is   -0.012210332803706
 Root     47 :     7.594459824780522   Change is   -0.006483793070213
 Root     48 :     7.639954189767039   Change is   -0.008154414032000
 Root     49 :     7.645154776965990   Change is   -0.062212116976059
 Root     50 :     7.696296002588585   Change is   -0.002942368016067
 Root     51 :     7.735386891756446   Change is   -0.003470953077169
 Root     52 :     7.827332907517105   Change is   -0.962432227972437
 Root     53 :     7.911972130812742   Change is   -0.015188000573277
 Root     54 :     7.942005297836209   Change is   -0.026207698350142
 Root     55 :     7.981908283804723   Change is   -0.013368872113466
 Root     56 :     8.055041353015783   Change is   -0.827568938464978
 Root     57 :     8.060034909575148   Change is   -0.008653132630759
 Root     58 :     8.094539295012845   Change is   -0.136004270326569
 Root     59 :     8.108555588482767   Change is   -0.023723663250482
 Root     60 :     8.211497803472913   Change is   -0.227454212168719
 Root     61 :     8.324844777932732   Change is   -0.004224612357216
 Root     62 :     8.334536205293428   Change is   -0.009354546031861
 Root     63 :     8.352513975842825   Change is   -0.001626545413697
 Root     64 :     8.397281056886412   Change is   -0.004921603767187
 Root     65 :     8.413545348782293   Change is   -0.010480209419488
 Root     66 :     8.466174211636922   Change is   -0.010793868156652
 Root     67 :     8.471469072595374   Change is   -0.001863237646953
 Root     68 :     8.480540729559383   Change is   -0.023220826828593
 Root     69 :     8.487963819538979   Change is   -0.356495806147017
 Root     70 :     8.509553564799312   Change is   -0.005044703038888
 Root     71 :     8.592535092930186   Change is   -0.000856349524111
 Root     72 :     8.603930042610314   Change is   -0.021417916268134
 Root     73 :     8.624656411204175   Change is   -0.016092073148411
 Root     74 :     8.625487172678332   Change is   -0.009610823486074
 Root     75 :     8.635287640765382   Change is   -0.345053949949368
 Root     76 :     8.643951530746024   Change is   -0.002223502049281
 Root     77 :     8.677874192097621   Change is   -0.039977354258402
 Root     78 :     8.699984820071059   Change is   -0.018268497551059
 Root     79 :     8.712817256612853   Change is   -0.005677993711432
 Root     80 :     8.770008009124323   Change is   -0.006123600668182
 Root     81 :     8.810405772272407   Change is   -0.005380361294448
 Root     82 :     8.835947088259250   Change is   -1.613362600580687
 Root     83 :     8.844118658889750   Change is   -0.006919259657102
 Root     84 :     8.850594492412467   Change is   -0.020267497831227
 Root     85 :     8.904525189666387   Change is   -0.001546252975685
 Root     86 :     8.940467455631195   Change is   -0.003496372676778
 Root     87 :     8.945393328953163   Change is   -0.005036313417146
 Root     88 :     8.951204207190514   Change is   -0.014057503460374
 Root     89 :     9.030345471625317   Change is   -0.005467665487770
 Root     90 :     9.064558858002849   Change is   -0.018893889963130
 Root     91 :     9.066671793391318   Change is   -0.084751330295957
 Root     92 :     9.077188934848825   Change is   -0.014352557742926
 Root     93 :     9.101998926565143   Change is   -0.014413475969855
 Root     94 :     9.124087793532892   Change is   -0.166568697838632
 Root     95 :     9.134514798082330   Change is   -0.112594472365996
 Root     96 :     9.152945101095632   Change is   -0.015626808369513
 Root     97 :     9.156373582007856   Change is   -0.005255186297864
 Root     98 :     9.161678754850206   Change is   -0.005059568036817
 Root     99 :     9.198585026260737   Change is   -0.087080925870377
 Root    100 :     9.242779873891191   Change is   -0.010986920232889
 Root    101 :     9.262101158851527   Change is   -0.080601335356796
 Root    102 :     9.297111525712204   Change is   -0.012187959744641
 Root    103 :     9.353630260666053   Change is   -0.006472637514316
 Root    104 :     9.403783457508615   Change is   -0.017502286252647
 Root    105 :     9.432380998329492   Change is   -0.223451772164361
 Root    106 :     9.442094813191018   Change is   -0.016625852760680
 Root    107 :     9.516611776260646   Change is   -0.003613750896536
 Root    108 :     9.545454222812632   Change is   -0.149099074569351
 Root    109 :     9.556882860368708   Change is   -0.012989398036409
 Root    110 :     9.567005492623172   Change is   -0.009223721723717
 Root    111 :     9.567874492406293   Change is   -0.004099206258383
 Root    112 :     9.631790924423093   Change is   -0.003428912446082
 Root    113 :     9.635611501430107   Change is   -0.020057545786104
 Root    114 :     9.660157302466121   Change is   -0.014795826168790
 Root    115 :     9.671641141022970   Change is   -0.002647210246374
 Root    116 :     9.696152771735475   Change is   -0.024135821689448
 Root    117 :     9.711363333197616   Change is   -0.093118719181642
 Root    118 :     9.757405639285528   Change is   -0.080790601678627
 Root    119 :     9.759663155709180   Change is   -1.157563370743442
 Root    120 :     9.771805688483250   Change is   -0.006927366477925
 Root    121 :     9.829577664727605   Change is   -0.051956834200261
 Root    122 :     9.850849933277614   Change is   -0.029845795939340
 Root    123 :     9.870128438146809   Change is   -0.080166376227181
 Root    124 :     9.939199585378571   Change is   -0.005888693299438
 Root    125 :     9.955694387602769   Change is   -1.177090449754391
 Root    126 :     9.957435219840313   Change is   -0.017384287466581
 Root    127 :     9.990864625249367   Change is   -0.050886138828548
 Root    128 :     9.992804392422201   Change is   -0.045564202448902
 Root    129 :    10.011829701584899   Change is   -0.022155375512124
 Root    130 :    10.115908279323776   Change is   -0.001981898826522
 Root    131 :    10.129528470762011   Change is   -0.010252321898812
 Root    132 :    10.147211502267737   Change is   -0.015124692402725
 Root    133 :    10.149350728555003   Change is   -0.003980701401717
 Root    134 :    10.164908389872368   Change is   -0.008306902509216
 Root    135 :    10.197601594981876   Change is   -0.042173850903466
 Root    136 :    10.199757749411285   Change is   -0.003676017058182
 Root    137 :    10.215058590529763   Change is   -0.056790602102397
 Root    138 :    10.224833802790567   Change is   -0.006776085910060
 Root    139 :    10.243628403729236   Change is   -0.153725252890087
 Root    140 :    10.252360698056531   Change is   -0.009459487439610
 Root    141 :    10.254074898260377   Change is   -0.083348254216569
 Root    142 :    10.255926835933808   Change is   -0.074145667138189
 Root    143 :    10.262290428708113   Change is   -0.007431142606018
 Root    144 :    10.271375102846589   Change is    0.005500430329426
 Root    145 :    10.313048656260426   Change is   -0.078957626696666
 Root    146 :    10.340585772309520   Change is   -0.038687815869276
 Root    147 :    10.351578853743028   Change is   -0.017242341180816
 Root    148 :    10.354265887550348   Change is   -1.156101299751962
 Root    149 :    10.388926051216572   Change is   -0.069607241377211
 Root    150 :    10.396711084794729   Change is   -0.006088529947447
 Root    151 :    10.397751032596378   Change is   -0.041865929610088
 Root    152 :    10.409751548617654   Change is   -0.037023601088697
 Root    153 :    10.486464518949004   Change is   -1.180946012476493
 Root    154 :    10.502329482890248   Change is   -0.010529098064670
 Root    155 :    10.532351326587156   Change is   -0.266226780524348
 Root    156 :    10.600422488606434   Change is   -0.033376210249088
 Root    157 :    10.653773673170493   Change is   -0.165904566358611
 Root    158 :    10.656690280247078   Change is   -0.095055802279557
 Root    159 :    10.714606767530066   Change is   -0.237566502715205
 Root    160 :    10.767472305369182
 Iteration     3 Dimension   360 NMult   320 NNew     40
 CISAX will form    10 AO SS matrices at one time.
 NMat=    10 NSing=    10 JSym2X= 0.
 NMat=    10 NSing=    10 JSym2X= 0.
 NMat=    10 NSing=    10 JSym2X= 0.
 NMat=    10 NSing=    10 JSym2X= 0.
 Root      1 not converged, maximum delta is    0.001555398934357
 Root      2 has converged.
 Root      3 has converged.
 Root      4 not converged, maximum delta is    0.002446451183349
 Root      5 has converged.
 New state      6 was old state      7
 Root      6 not converged, maximum delta is    0.028684366332165
 New state      7 was old state      6
 Root      7 not converged, maximum delta is    0.023121038978755
 Root      8 has converged.
 Root      9 not converged, maximum delta is    0.002954947547896
 Root     10 not converged, maximum delta is    0.003140343978750
 Root     11 has converged.
 Root     12 not converged, maximum delta is    0.003283425130731
 Root     13 not converged, maximum delta is    0.007257936811003
 Root     14 not converged, maximum delta is    0.002700109479627
 Root     15 not converged, maximum delta is    0.001107681361826
 Root     16 has converged.
 Root     17 has converged.
 Root     18 not converged, maximum delta is    0.002661309535543
 Root     19 not converged, maximum delta is    0.002026488447486
 Root     20 not converged, maximum delta is    0.005326298141961
 Root     21 not converged, maximum delta is    0.006846485315368
 Root     22 not converged, maximum delta is    0.003365922781846
 Root     23 not converged, maximum delta is    0.013387972361500
 Root     24 not converged, maximum delta is    0.016353563361770
 Root     25 has converged.
 Root     26 not converged, maximum delta is    0.003197487205083
 Root     27 not converged, maximum delta is    0.001128681572851
 Root     28 not converged, maximum delta is    0.006413875230143
 Root     29 has converged.
 Root     30 not converged, maximum delta is    0.001473099353053
 Root     31 not converged, maximum delta is    0.006461297929082
 Root     32 not converged, maximum delta is    0.004055509883520
 Root     33 not converged, maximum delta is    0.013437830710610
 Root     34 has converged.
 Root     35 not converged, maximum delta is    0.001033672479455
 Root     36 has converged.
 Root     37 not converged, maximum delta is    0.010319669207449
 Root     38 not converged, maximum delta is    0.014245888624582
 Root     39 not converged, maximum delta is    0.002361922921445
 Root     40 not converged, maximum delta is    0.003620344324639
 Excitation Energies [eV] at current iteration:
 Root      1 :     2.711083991151593   Change is   -0.005895719417940
 Root      2 :     3.634432334758543   Change is   -0.001019334082086
 Root      3 :     3.753619009170300   Change is   -0.000391644690401
 Root      4 :     4.459301216518585   Change is   -0.006095444461519
 Root      5 :     4.679947455971149   Change is   -0.000804093222430
 Root      6 :     5.020153408800934   Change is   -0.022299638476627
 Root      7 :     5.032188593636895   Change is   -0.000904995685332
 Root      8 :     5.223261247552685   Change is   -0.000225572092576
 Root      9 :     5.286914143621991   Change is   -0.001598233013012
 Root     10 :     5.325617715901569   Change is   -0.004374003674664
 Root     11 :     5.393354000142200   Change is   -0.000272027411863
 Root     12 :     5.469715442162029   Change is   -0.002981642228468
 Root     13 :     5.807579137300463   Change is   -0.011690570220460
 Root     14 :     5.824438091215224   Change is   -0.000179785249461
 Root     15 :     5.940650826470520   Change is   -0.000089302205548
 Root     16 :     6.001570105299444   Change is   -0.000101536339969
 Root     17 :     6.150285353927640   Change is   -0.000125081802622
 Root     18 :     6.185070834591617   Change is   -0.002582967301426
 Root     19 :     6.303262524133480   Change is   -0.000813226956997
 Root     20 :     6.355895315926750   Change is   -0.000351679363250
 Root     21 :     6.420001296986437   Change is   -0.023649826167139
 Root     22 :     6.457106978602881   Change is   -0.002732416984526
 Root     23 :     6.564587428021399   Change is   -0.000598474815327
 Root     24 :     6.567678217337556   Change is   -0.003607136606311
 Root     25 :     6.769113907498948   Change is   -0.000565543284105
 Root     26 :     6.817881527090337   Change is   -0.001734443150209
 Root     27 :     6.901766924397336   Change is   -0.000726310521216
 Root     28 :     6.906200735373536   Change is   -0.000240590731710
 Root     29 :     6.909867538206920   Change is   -0.000153182335952
 Root     30 :     6.912114437820663   Change is   -0.000084361446530
 Root     31 :     6.914651992346505   Change is   -0.000320375489614
 Root     32 :     7.026398938367206   Change is   -0.010423766055892
 Root     33 :     7.038783961108593   Change is   -0.019989973880956
 Root     34 :     7.109887942331093   Change is   -0.000296119295405
 Root     35 :     7.158941064276508   Change is   -0.000498124400648
 Root     36 :     7.341459800601799   Change is   -0.000195646144118
 Root     37 :     7.389262246401209   Change is   -0.000165185967052
 Root     38 :     7.403982439630090   Change is   -0.003463615661230
 Root     39 :     7.443881201563476   Change is   -0.000102349924886
 Root     40 :     7.457022420645469   Change is   -0.000382259487930
 Iteration     4 Dimension   389 NMult   360 NNew     29
 CISAX will form    10 AO SS matrices at one time.
 NMat=    10 NSing=    10 JSym2X= 0.
 NMat=    10 NSing=    10 JSym2X= 0.
 NMat=     9 NSing=     9 JSym2X= 0.
 Root      1 has converged.
 Root      2 has converged.
 Root      3 has converged.
 Root      4 not converged, maximum delta is    0.001066466485029
 Root      5 has converged.
 Root      6 not converged, maximum delta is    0.002771820624790
 Root      7 not converged, maximum delta is    0.002062363305939
 Root      8 has converged.
 Root      9 has converged.
 Root     10 not converged, maximum delta is    0.001008285358810
 Root     11 has converged.
 Root     12 has converged.
 Root     13 not converged, maximum delta is    0.001653262173819
 Root     14 has converged.
 Root     15 has converged.
 Root     16 has converged.
 Root     17 has converged.
 Root     18 has converged.
 Root     19 has converged.
 Root     20 has converged.
 Root     21 not converged, maximum delta is    0.001300204688589
 Root     22 has converged.
 Root     23 not converged, maximum delta is    0.003725083700205
 Root     24 not converged, maximum delta is    0.004544336426805
 Root     25 has converged.
 Root     26 has converged.
 Root     27 has converged.
 Root     28 has converged.
 Root     29 has converged.
 Root     30 has converged.
 Root     31 has converged.
 Root     32 not converged, maximum delta is    0.001720821141147
 Root     33 not converged, maximum delta is    0.001713006931587
 Root     34 has converged.
 Root     35 has converged.
 Root     36 has converged.
 Root     37 not converged, maximum delta is    0.001644152937498
 Root     38 not converged, maximum delta is    0.002273263689335
 Root     39 has converged.
 Root     40 has converged.
 Excitation Energies [eV] at current iteration:
 Root      1 :     2.710222983442312   Change is   -0.000861007709281
 Root      2 :     3.634301990872525   Change is   -0.000130343886018
 Root      3 :     3.753561278189136   Change is   -0.000057730981164
 Root      4 :     4.458268607585772   Change is   -0.001032608932813
 Root      5 :     4.679917397850470   Change is   -0.000030058120679
 Root      6 :     5.016998288478415   Change is   -0.003155120322520
 Root      7 :     5.032070838220381   Change is   -0.000117755416514
 Root      8 :     5.223261111728500   Change is   -0.000000135824184
 Root      9 :     5.286680823427939   Change is   -0.000233320194052
 Root     10 :     5.324922625783717   Change is   -0.000695090117853
 Root     11 :     5.393353504440454   Change is   -0.000000495701747
 Root     12 :     5.469306722759488   Change is   -0.000408719402541
 Root     13 :     5.806131144232533   Change is   -0.001447993067930
 Root     14 :     5.824415141413281   Change is   -0.000022949801943
 Root     15 :     5.940638188936211   Change is   -0.000012637534310
 Root     16 :     6.001570079399098   Change is   -0.000000025900345
 Root     17 :     6.150285012923098   Change is   -0.000000341004543
 Root     18 :     6.184707525512695   Change is   -0.000363309078921
 Root     19 :     6.303142670747437   Change is   -0.000119853386042
 Root     20 :     6.355852453706167   Change is   -0.000042862220583
 Root     21 :     6.416923480085938   Change is   -0.003077816900499
 Root     22 :     6.456714052681138   Change is   -0.000392925921744
 Root     23 :     6.564503571468760   Change is   -0.000083856552639
 Root     24 :     6.567223371065258   Change is   -0.000454846272298
 Root     25 :     6.769110587822099   Change is   -0.000003319676849
 Root     26 :     6.817672567246496   Change is   -0.000208959843841
 Root     27 :     6.901656952013478   Change is   -0.000109972383858
 Root     28 :     6.906170284797841   Change is   -0.000030450575696
 Root     29 :     6.909867401515732   Change is   -0.000000136691188
 Root     30 :     6.912104153153707   Change is   -0.000010284666957
 Root     31 :     6.914614054856687   Change is   -0.000037937489818
 Root     32 :     7.024986369273004   Change is   -0.001412569094201
 Root     33 :     7.036645032812415   Change is   -0.002138928296178
 Root     34 :     7.109866947064997   Change is   -0.000020995266095
 Root     35 :     7.158880604779555   Change is   -0.000060459496953
 Root     36 :     7.341440334054706   Change is   -0.000019466547093
 Root     37 :     7.389240954724080   Change is   -0.000021291677130
 Root     38 :     7.403572534732860   Change is   -0.000409904897230
 Root     39 :     7.443868706310778   Change is   -0.000012495252699
 Root     40 :     7.456976792119332   Change is   -0.000045628526137
 Iteration     5 Dimension   401 NMult   389 NNew     12
 CISAX will form    12 AO SS matrices at one time.
 NMat=    12 NSing=    12 JSym2X= 0.
 Root      1 has converged.
 Root      2 has converged.
 Root      3 has converged.
 Root      4 has converged.
 Root      5 has converged.
 Root      6 not converged, maximum delta is    0.001395045729617
 Root      7 has converged.
 Root      8 has converged.
 Root      9 has converged.
 Root     10 has converged.
 Root     11 has converged.
 Root     12 has converged.
 Root     13 has converged.
 Root     14 has converged.
 Root     15 has converged.
 Root     16 has converged.
 Root     17 has converged.
 Root     18 has converged.
 Root     19 has converged.
 Root     20 has converged.
 Root     21 has converged.
 Root     22 has converged.
 Root     23 has converged.
 Root     24 not converged, maximum delta is    0.001100469533112
 Root     25 has converged.
 Root     26 has converged.
 Root     27 has converged.
 Root     28 has converged.
 Root     29 has converged.
 Root     30 has converged.
 Root     31 has converged.
 Root     32 has converged.
 Root     33 has converged.
 Root     34 has converged.
 Root     35 has converged.
 Root     36 has converged.
 Root     37 has converged.
 Root     38 has converged.
 Root     39 has converged.
 Root     40 has converged.
 Excitation Energies [eV] at current iteration:
 Root      1 :     2.710077313829809   Change is   -0.000145669612502
 Root      2 :     3.634296167022151   Change is   -0.000005823850374
 Root      3 :     3.753553740972377   Change is   -0.000007537216758
 Root      4 :     4.458045307322243   Change is   -0.000223300263529
 Root      5 :     4.679915230626794   Change is   -0.000002167223675
 Root      6 :     5.016326890613056   Change is   -0.000671397865358
 Root      7 :     5.032048844716554   Change is   -0.000021993503827
 Root      8 :     5.223261087759683   Change is   -0.000000023968817
 Root      9 :     5.286665602126421   Change is   -0.000015221301518
 Root     10 :     5.324771580582941   Change is   -0.000151045200776
 Root     11 :     5.393353481590442   Change is   -0.000000022850012
 Root     12 :     5.469306618913724   Change is   -0.000000103845764
 Root     13 :     5.805836158856624   Change is   -0.000294985375909
 Root     14 :     5.824415101744448   Change is   -0.000000039668834
 Root     15 :     5.940638082968876   Change is   -0.000000105967334
 Root     16 :     6.001570068478139   Change is   -0.000000010920960
 Root     17 :     6.150285002622466   Change is   -0.000000010300632
 Root     18 :     6.184685018940031   Change is   -0.000022506572664
 Root     19 :     6.303121611546658   Change is   -0.000021059200780
 Root     20 :     6.355851528753058   Change is   -0.000000924953109
 Root     21 :     6.416450630528244   Change is   -0.000472849557694
 Root     22 :     6.456645801435251   Change is   -0.000068251245886
 Root     23 :     6.564488975026561   Change is   -0.000014596442199
 Root     24 :     6.567132046420558   Change is   -0.000091324644700
 Root     25 :     6.769110578491449   Change is   -0.000000009330650
 Root     26 :     6.817645532052778   Change is   -0.000027035193719
 Root     27 :     6.901656676321463   Change is   -0.000000275692015
 Root     28 :     6.906170259857843   Change is   -0.000000024939997
 Root     29 :     6.909867363691948   Change is   -0.000000037823785
 Root     30 :     6.912104044081056   Change is   -0.000000109072651
 Root     31 :     6.914614050145130   Change is   -0.000000004711556
 Root     32 :     7.024706164964398   Change is   -0.000280204308606
 Root     33 :     7.036253451058028   Change is   -0.000391581754388
 Root     34 :     7.109866812051839   Change is   -0.000000135013158
 Root     35 :     7.158878241211531   Change is   -0.000002363568024
 Root     36 :     7.341440298334899   Change is   -0.000000035719807
 Root     37 :     7.389237728748707   Change is   -0.000003225975373
 Root     38 :     7.403496358212625   Change is   -0.000076176520236
 Root     39 :     7.443868654134157   Change is   -0.000000052176621
 Root     40 :     7.456976663989505   Change is   -0.000000128129827
 Iteration     6 Dimension   403 NMult   401 NNew      2
 CISAX will form     2 AO SS matrices at one time.
 NMat=     2 NSing=     2 JSym2X= 0.
 Root      1 has converged.
 Root      2 has converged.
 Root      3 has converged.
 Root      4 has converged.
 Root      5 has converged.
 Root      6 has converged.
 Root      7 has converged.
 Root      8 has converged.
 Root      9 has converged.
 Root     10 has converged.
 Root     11 has converged.
 Root     12 has converged.
 Root     13 has converged.
 Root     14 has converged.
 Root     15 has converged.
 Root     16 has converged.
 Root     17 has converged.
 Root     18 has converged.
 Root     19 has converged.
 Root     20 has converged.
 Root     21 has converged.
 Root     22 has converged.
 Root     23 has converged.
 Root     24 has converged.
 Root     25 has converged.
 Root     26 has converged.
 Root     27 has converged.
 Root     28 has converged.
 Root     29 has converged.
 Root     30 has converged.
 Root     31 has converged.
 Root     32 has converged.
 Root     33 has converged.
 Root     34 has converged.
 Root     35 has converged.
 Root     36 has converged.
 Root     37 has converged.
 Root     38 has converged.
 Root     39 has converged.
 Root     40 has converged.
 Excitation Energies [eV] at current iteration:
 Root      1 :     2.710077312617753   Change is   -0.000000001212056
 Root      2 :     3.634295453326069   Change is   -0.000000713696083
 Root      3 :     3.753553739431099   Change is   -0.000000001541278
 Root      4 :     4.458045306465287   Change is   -0.000000000856956
 Root      5 :     4.679915227526338   Change is   -0.000000003100456
 Root      6 :     5.016198220493954   Change is   -0.000128670119103
 Root      7 :     5.032048815492785   Change is   -0.000000029223769
 Root      8 :     5.223261087094156   Change is   -0.000000000665528
 Root      9 :     5.286665601986238   Change is   -0.000000000140183
 Root     10 :     5.324771572550189   Change is   -0.000000008032752
 Root     11 :     5.393353481554897   Change is   -0.000000000035545
 Root     12 :     5.469306618095528   Change is   -0.000000000818196
 Root     13 :     5.805836152400504   Change is   -0.000000006456120
 Root     14 :     5.824415089315497   Change is   -0.000000012428950
 Root     15 :     5.940638082914783   Change is   -0.000000000054093
 Root     16 :     6.001570068367750   Change is   -0.000000000110389
 Root     17 :     6.150285002313554   Change is   -0.000000000308913
 Root     18 :     6.184682498874371   Change is   -0.000002520065660
 Root     19 :     6.303121611220025   Change is   -0.000000000326632
 Root     20 :     6.355851528258456   Change is   -0.000000000494601
 Root     21 :     6.416450601847050   Change is   -0.000000028681195
 Root     22 :     6.456634768893037   Change is   -0.000011032542215
 Root     23 :     6.564488922146959   Change is   -0.000000052879603
 Root     24 :     6.567116995589511   Change is   -0.000015050831047
 Root     25 :     6.769110578180817   Change is   -0.000000000310632
 Root     26 :     6.817643233738756   Change is   -0.000002298314021
 Root     27 :     6.901656676250960   Change is   -0.000000000070503
 Root     28 :     6.906170259580361   Change is   -0.000000000277482
 Root     29 :     6.909867363605206   Change is   -0.000000000086742
 Root     30 :     6.912104041400301   Change is   -0.000000002680755
 Root     31 :     6.914614049997957   Change is   -0.000000000147173
 Root     32 :     7.024706160951906   Change is   -0.000000004012492
 Root     33 :     7.036253449224454   Change is   -0.000000001833574
 Root     34 :     7.109866783765057   Change is   -0.000000028286783
 Root     35 :     7.158878230129244   Change is   -0.000000011082287
 Root     36 :     7.341440298107585   Change is   -0.000000000227314
 Root     37 :     7.389237671848372   Change is   -0.000000056900335
 Root     38 :     7.403492302093240   Change is   -0.000004056119384
 Root     39 :     7.443868654008271   Change is   -0.000000000125887
 Root     40 :     7.456976663961966   Change is   -0.000000000027539
 Convergence achieved on expansion vectors.
 ***********************************************************************
 Excited states from <AA,BB:AA,BB> singles matrix:
 ***********************************************************************
 
 1PDM for each excited state written to RWF  633
 Ground to excited state transition densities written to RWF  633
 Ground to excited state transition electric dipole moments (Au):
       state          X           Y           Z        Dip. S.      Osc.
         1        -0.0038     -0.7722      0.0000      0.5962      0.0396
         2         0.0625      0.0005      0.0000      0.0039      0.0003
         3        -0.0004      0.0001      0.0000      0.0000      0.0000
         4        -0.0008      0.0004      0.0010      0.0000      0.0000
         5        -0.0004     -0.0239     -0.0000      0.0006      0.0001
         6         3.7293     -0.0010      0.0001     13.9080      1.7092
         7        -0.0622     -0.0003     -0.0049      0.0039      0.0005
         8        -0.0099     -0.0003     -0.0001      0.0001      0.0000
         9         0.0028     -0.0011      0.0004      0.0000      0.0000
        10        -0.0115      0.2224      0.0002      0.0496      0.0065
        11        -0.0000     -0.0011      0.0247      0.0006      0.0001
        12        -0.0077      0.0010     -0.0020      0.0001      0.0000
        13         0.0018      0.7261     -0.0003      0.5273      0.0750
        14         0.0018      0.0012      0.0000      0.0000      0.0000
        15        -0.0011     -0.0189     -0.0000      0.0004      0.0001
        16        -0.0006      0.0006     -0.0001      0.0000      0.0000
        17        -0.0001      0.0011      0.0205      0.0004      0.0001
        18         0.0692      0.0013      0.0000      0.0048      0.0007
        19        -0.0013     -0.0013     -0.0002      0.0000      0.0000
        20        -0.0057     -0.0564      0.0001      0.0032      0.0005
        21         0.0031     -1.0234      0.0003      1.0474      0.1646
        22         0.5243     -0.0049      0.0001      0.2750      0.0435
[...]
    10  C   -0.103648   0.030131   0.436909   5.029087   0.000025   0.000001
    11  C   -0.000584   0.000006   0.000001   0.000025   5.028460   0.437022
    12  C    0.000006   0.000000  -0.000000   0.000001   0.437022   4.836510
    13  C    0.000001  -0.000000   0.000000   0.000006   0.030079   0.403252
    14  C    0.000025   0.000001   0.000006  -0.000579  -0.103630   0.030066
    15  H   -0.000026  -0.000001   0.000000  -0.000002   0.393941  -0.062757
    16  H   -0.000000   0.000000   0.000000   0.000000  -0.046085   0.386782
    17  H    0.000000   0.000000   0.000000  -0.000000   0.010981  -0.057405
    18  H   -0.000002   0.000000  -0.000001  -0.000026  -0.000811   0.011694
    19  H   -0.023027   0.000894  -0.000068  -0.000159  -0.023037   0.000899
    20  H   -0.000809   0.011698  -0.062696   0.393888  -0.000002   0.000000
    21  H    0.010986  -0.057477   0.386850  -0.046253   0.000000   0.000000
    22  H    0.393907  -0.062732   0.011725  -0.000813  -0.000026  -0.000001
    23  H   -0.046131   0.386860  -0.057533   0.010968  -0.000000   0.000000
    24  H   -0.000158  -0.000067   0.000889  -0.023032  -0.000159  -0.000067
              13         14         15         16         17         18
     1  C   -0.001374   0.020525  -0.025891  -0.000492   0.000045  -0.000131
     2  C   -0.080649  -0.029578  -0.046226   0.010412   0.000543   0.014449
     3  C    0.000183  -0.000398   0.001813   0.000010  -0.000000  -0.000081
     4  C    0.044695   0.401643   0.014476   0.000541   0.010392  -0.046227
     5  C    0.012175  -0.132290  -0.000132   0.000045  -0.000489  -0.025768
     6  C   -0.001027   0.011630  -0.000081  -0.000000   0.000010   0.001790
     7  C    0.000001   0.000025  -0.000026  -0.000000   0.000000  -0.000002
     8  C   -0.000000   0.000001  -0.000001   0.000000   0.000000   0.000000
     9  C    0.000000   0.000006   0.000000   0.000000   0.000000  -0.000001
    10  C    0.000006  -0.000579  -0.000002   0.000000  -0.000000  -0.000026
    11  C    0.030079  -0.103630   0.393941  -0.046085   0.010981  -0.000811
    12  C    0.403252   0.030066  -0.062757   0.386782  -0.057405   0.011694
    13  C    4.836130   0.436950   0.011721  -0.057523   0.386881  -0.062653
    14  C    0.436950   5.029532  -0.000813   0.010964  -0.046257   0.393968
    15  H    0.011721  -0.000813   0.774349  -0.016908  -0.000343   0.000065
    16  H   -0.057523   0.010964  -0.016908   0.760932  -0.017101  -0.000342
    17  H    0.386881  -0.046257  -0.000343  -0.017101   0.760947  -0.016854
    18  H   -0.062653   0.393968   0.000065  -0.000342  -0.016854   0.773927
    19  H   -0.000068  -0.000157   0.004266  -0.000025  -0.000001   0.000016
    20  H   -0.000001  -0.000026   0.000000   0.000000  -0.000000   0.000025
    21  H    0.000000  -0.000000   0.000000   0.000000  -0.000000  -0.000000
    22  H    0.000000  -0.000002   0.000025  -0.000000   0.000000   0.000000
    23  H    0.000000   0.000000  -0.000000  -0.000000   0.000000   0.000000
    24  H    0.000884  -0.023021   0.000016  -0.000001  -0.000024   0.004285
              19         20         21         22         23         24
     1  C    0.392986  -0.000133   0.000045  -0.025863  -0.000491  -0.001157
     2  C   -0.052266  -0.000081  -0.000000   0.001808   0.000010   0.014168
     3  C   -0.052151   0.014479   0.000541  -0.046182   0.010408   0.014152
     4  C    0.014123   0.001795   0.000010  -0.000081  -0.000000  -0.052061
     5  C   -0.001161  -0.025820  -0.000490  -0.000130   0.000045   0.392799
     6  C    0.014151  -0.046122   0.010393   0.014470   0.000542  -0.052152
     7  C   -0.023027  -0.000809   0.010986   0.393907  -0.046131  -0.000158
     8  C    0.000894   0.011698  -0.057477  -0.062732   0.386860  -0.000067
     9  C   -0.000068  -0.062696   0.386850   0.011725  -0.057533   0.000889
    10  C   -0.000159   0.393888  -0.046253  -0.000813   0.010968  -0.023032
    11  C   -0.023037  -0.000002   0.000000  -0.000026  -0.000000  -0.000159
    12  C    0.000899   0.000000   0.000000  -0.000001   0.000000  -0.000067
    13  C   -0.000068  -0.000001   0.000000   0.000000   0.000000   0.000884
    14  C   -0.000157  -0.000026  -0.000000  -0.000002   0.000000  -0.023021
    15  H    0.004266   0.000000   0.000000   0.000025  -0.000000   0.000016
    16  H   -0.000025   0.000000   0.000000  -0.000000  -0.000000  -0.000001
    17  H   -0.000001  -0.000000  -0.000000   0.000000   0.000000  -0.000024
    18  H    0.000016   0.000025  -0.000000   0.000000   0.000000   0.004285
    19  H    0.778624   0.000016  -0.000001   0.004280  -0.000024   0.000060
    20  H    0.000016   0.774033  -0.016868   0.000065  -0.000341   0.004280
    21  H   -0.000001  -0.016868   0.760951  -0.000344  -0.017122  -0.000025
    22  H    0.004280   0.000065  -0.000344   0.774206  -0.016890   0.000016
    23  H   -0.000024  -0.000341  -0.017122  -0.016890   0.761051  -0.000001
    24  H    0.000060   0.004280  -0.000025   0.000016  -0.000001   0.778838
 Mulliken charges:
               1
     1  C   -0.040530
     2  C    0.086711
     3  C    0.086054
     4  C    0.085612
     5  C   -0.039871
     6  C    0.086100
     7  C    0.001612
     8  C    0.040449
     9  C    0.040179
    10  C    0.001473
    11  C    0.001891
    12  C    0.039890
    13  C    0.040336
    14  C    0.001439
    15  H   -0.047492
    16  H   -0.031206
    17  H   -0.031324
    18  H   -0.047325
    19  H   -0.058169
    20  H   -0.047382
    21  H   -0.031195
    22  H   -0.047438
    23  H   -0.031351
    24  H   -0.058461
 Sum of Mulliken charges =  -0.00000
 Mulliken charges with hydrogens summed into heavy atoms:
               1
     1  C   -0.098700
     2  C    0.086711
     3  C    0.086054
     4  C    0.085612
     5  C   -0.098333
     6  C    0.086100
     7  C   -0.045826
     8  C    0.009097
     9  C    0.008984
    10  C   -0.045909
    11  C   -0.045601
    12  C    0.008684
    13  C    0.009013
    14  C   -0.045885
 Electronic spatial extent (au):  <R**2>=           2822.9245
 Charge=             -0.0000 electrons
 Dipole moment (field-independent basis, Debye):
    X=             -0.0004    Y=             -0.0020    Z=              0.0621  Tot=              0.0622
 Quadrupole moment (field-independent basis, Debye-Ang):
   XX=            -71.1767   YY=            -71.3803   ZZ=            -86.3481
   XY=             -0.0096   XZ=             -0.0003   YZ=              0.0007
 Traceless Quadrupole moment (field-independent basis, Debye-Ang):
   XX=              5.1250   YY=              4.9214   ZZ=            -10.0464
   XY=             -0.0096   XZ=             -0.0003   YZ=              0.0007
 Octapole moment (field-independent basis, Debye-Ang**2):
  XXX=             -0.0135  YYY=              0.0014  ZZZ=              0.0430  XYY=             -0.0026
  XXY=             -0.0278  XXZ=              1.9460  XZZ=              0.0023  YZZ=             -0.0063
  YYZ=              0.1200  XYZ=              0.0301
 Hexadecapole moment (field-independent basis, Debye-Ang**3):
 XXXX=          -2814.2748 YYYY=           -696.6278 ZZZZ=            -94.3388 XXXY=             -0.1864
 XXXZ=              0.0174 YYYX=             -0.0533 YYYZ=              0.0059 ZZZX=             -0.0002
 ZZZY=              0.0008 XXYY=           -593.6364 XXZZ=           -585.3395 YYZZ=           -154.6369
 XXYZ=             -0.0139 YYXZ=             -0.0095 ZZXY=             -0.0007
 N-N= 7.699353678581D+02 E-N=-2.790141991302D+03  KE= 5.359494331621D+02
 Leave Link  601 at Fri Oct 18 14:39:58 2024, MaxMem=   104857600 cpu:               0.4 elap:               0.0
 (Enter /curc/sw/install/gaussian/g16_c.02/g16/l9999.exe)
 Electronic transition elements 
                 1             2             3             4             5 
      1  -0.538762D+03 -0.538728D+03 -0.538724D+03 -0.538698D+03 -0.538690D+03
      2  -0.192316D+00  0.535914D-01 -0.276893D-03 -0.152195D-03 -0.623816D-02
      3  -0.250577D+00 -0.321445D-01  0.244084D-03  0.133123D-02 -0.762266D-02
      4   0.704605D+00  0.226965D-02 -0.934756D-04 -0.330937D-04  0.218334D-01
      5   0.219106D-01 -0.338126D-02  0.413380D-04  0.182970D-04  0.115032D-02
      6   0.286371D-01  0.200692D-02 -0.241576D-04 -0.209714D-03  0.142757D-02
      7  -0.804539D-01 -0.104488D-03  0.161493D-04  0.478564D-05 -0.401534D-02
      8  -0.237459D-01 -0.231455D-03  0.182081D+00 -0.518272D+00  0.104051D-01
      9   0.141134D-01 -0.755266D-03  0.315001D+00 -0.896214D+00 -0.583089D-02
     10  -0.230979D-03 -0.141381D-02  0.161726D+00 -0.459952D+00  0.192863D-03
     11  -0.850036D-03 -0.409680D-03 -0.583663D-02 -0.262119D+00 -0.119756D-02
     12  -0.304198D-02  0.489945D-03  0.444659D-02  0.209803D+00 -0.125908D-02
     13   0.388734D-02 -0.262473D-03  0.971567D-03  0.493274D-01  0.172184D-02
     14  -0.139545D-02 -0.278095D-03 -0.197636D-02 -0.944895D-01 -0.463880D-03
     15   0.105596D-02 -0.252794D-03  0.103012D-01  0.479258D+00  0.493090D-03
     16   0.322311D-02  0.168046D-03 -0.645532D-02 -0.302420D+00  0.141325D-02
                 6             7             8             9            10 
      1  -0.538677D+03 -0.538677D+03 -0.538670D+03 -0.538668D+03 -0.538666D+03
      2   0.318794D+01 -0.555109D-01 -0.864336D-02  0.230654D-02  0.447138D-01
      3  -0.192814D+01  0.281998D-01  0.493058D-02 -0.145497D-02  0.788584D-01
      4   0.165460D+00 -0.450595D-02 -0.187526D-03  0.125381D-02 -0.203378D+00
      5  -0.573417D+00  0.997048D-02  0.161325D-02 -0.425088D-03 -0.845192D-02
      6   0.346829D+00 -0.519666D-02 -0.933892D-03  0.302260D-03 -0.149476D-01
      7  -0.297763D-01  0.767874D-03  0.294926D-04 -0.230448D-03  0.385156D-01
      8   0.117355D-01  0.107434D-03  0.677770D-03 -0.111662D-03 -0.811018D-02
      9   0.157349D-01  0.206912D-03  0.859336D-03 -0.823497D-04  0.497608D-02
     10  -0.432203D-01  0.773769D-03  0.109854D-02 -0.145321D-03 -0.790386D-04
     11  -0.207420D-01  0.228630D+00 -0.112700D-02  0.335016D-02  0.209857D-02
     12   0.275075D-01  0.650655D-01  0.824530D-03  0.241510D-02  0.418371D-02
     13  -0.444599D-02 -0.108261D+00  0.167915D-03  0.505396D-01 -0.536209D-02
     14  -0.178210D-01 -0.159758D+00 -0.350141D-03  0.186163D-02  0.259253D-02
     15  -0.105645D-01  0.388772D-01  0.217751D-02 -0.155049D-01 -0.228564D-02
     16   0.687020D-02  0.260559D-01 -0.137263D-02 -0.204866D-01 -0.505060D-02
                11            12            13            14            15 
      1  -0.538664D+03 -0.538661D+03 -0.538648D+03 -0.538648D+03 -0.538643D+03
      2   0.110360D-01 -0.727102D-02  0.179238D+00  0.180903D-02 -0.555733D-02
      3   0.192000D-01  0.271074D-02  0.236369D+00 -0.520340D-03 -0.565021D-02
      4   0.109964D-01 -0.212907D-02 -0.662768D+00 -0.980924D-03  0.171860D-01
      5  -0.181396D-02  0.133470D-02 -0.388543D-01 -0.403684D-03  0.122443D-02
      6  -0.315791D-02 -0.709021D-03 -0.512566D-01  0.122627D-03  0.125581D-02
      7  -0.183336D-02  0.319114D-03  0.143689D+00  0.212997D-03 -0.376719D-02
      8  -0.487450D-04 -0.225646D-03 -0.845617D-03  0.411745D-01 -0.147804D+00
      9   0.144566D-03 -0.259710D-03  0.108879D-02  0.560486D-01  0.890865D-01
     10  -0.106112D-05 -0.686331D-04  0.931248D-04 -0.155242D+00 -0.773602D-02
     11  -0.264498D-03  0.841925D-02 -0.185518D-03 -0.686539D-01 -0.264144D-01
     12  -0.962858D-03 -0.110467D-01 -0.541007D-03  0.718304D-01 -0.606513D-01
     13  -0.152752D-02 -0.163126D+00  0.446236D-03 -0.299658D-02  0.866273D-01
     14  -0.750404D-03 -0.253850D-01  0.139318D-02 -0.386573D-01 -0.403028D-01
     15   0.307371D-03  0.458184D-01 -0.233691D-02 -0.324918D-01  0.375375D-01
     16  -0.136328D-04  0.599090D-01  0.332425D-03  0.155553D-01  0.692212D-01
                16            17            18            19            20 
      1  -0.538641D+03 -0.538636D+03 -0.538635D+03 -0.538630D+03 -0.538628D+03
      2  -0.430097D-03  0.958818D-02  0.594569D-01 -0.157928D-02 -0.186183D-01
      3   0.412137D-03  0.165932D-01 -0.353288D-01  0.676410D-04 -0.154284D-01
      4  -0.677398D-03  0.731796D-02  0.187431D-02  0.106996D-02  0.512970D-01
      5   0.873077D-04 -0.344520D-02 -0.999371D-02  0.369048D-03  0.438111D-02
      6  -0.956065D-04 -0.596670D-02  0.590594D-02  0.000000D+00  0.363681D-02
      7   0.140941D-03 -0.279240D-02 -0.249841D-03 -0.238012D-03 -0.120844D-01
      8   0.529543D-02 -0.639019D-03 -0.175899D-02  0.388464D+00 -0.729621D-02
      9   0.101140D-01  0.892871D-03 -0.270799D-02  0.671908D+00  0.492182D-02
     10   0.523207D-02  0.109387D-03  0.570981D-03  0.345198D+00 -0.936487D-03
     11   0.146665D-02  0.173530D-03  0.255570D-02  0.114138D+00  0.785727D-03
     12   0.162742D-02 -0.318919D-02 -0.280231D-02 -0.918604D-01  0.389057D-02
     13   0.383743D-03  0.248561D-02  0.227928D-03 -0.221652D-01 -0.535108D-02
     14  -0.177932D-02 -0.263634D-02  0.151500D-02  0.413362D-01  0.260216D-02
     15   0.208001D-02 -0.184185D-02  0.257854D-02 -0.208881D+00 -0.262072D-02
     16  -0.922391D-03 -0.248804D-02 -0.136020D-02  0.132182D+00 -0.418895D-02
                21            22            23            24            25 
      1  -0.538626D+03 -0.538625D+03 -0.538621D+03 -0.538620D+03 -0.538613D+03
      2  -0.247835D+00  0.447066D+00  0.416843D-01  0.583716D+00 -0.252807D-01
      3  -0.336065D+00 -0.272610D+00 -0.250953D-01 -0.349020D+00 -0.432472D-01
      4   0.934349D+00  0.276802D-01  0.177655D-02  0.222729D-01 -0.210792D-01
      5   0.588693D-01 -0.108331D+00 -0.993803D-02 -0.138936D+00  0.531008D-02
      6   0.797895D-01  0.660459D-01  0.598951D-02  0.830593D-01  0.906688D-02
      7  -0.221892D+00 -0.668179D-02 -0.421103D-03 -0.527625D-02  0.438067D-02
      8  -0.176351D-01  0.172952D-02 -0.498218D-03  0.185258D-02 -0.494637D-03
      9   0.117645D-01  0.246373D-02 -0.912465D-03  0.197651D-02 -0.324662D-03
     10   0.147345D-02 -0.548600D-02 -0.136825D-02 -0.912963D-02 -0.163381D-03
     11   0.348779D-02 -0.303455D-02  0.118706D+00 -0.767641D-02 -0.127711D-01
     12   0.168605D-02  0.185094D-02 -0.953161D-01  0.122700D-01 -0.255582D-02
     13  -0.355495D-02 -0.226486D-03 -0.231768D-01  0.270104D-03  0.174870D-02
     14   0.209242D-02 -0.827841D-03  0.428204D-01 -0.814638D-02  0.966556D-02
     15  -0.192689D-02 -0.510531D-03 -0.217842D+00  0.158754D-01 -0.248138D-03
     16  -0.304942D-02  0.413548D-03  0.137806D+00 -0.951821D-02  0.124031D-02
                26            27            28            29            30 
      1  -0.538611D+03 -0.538608D+03 -0.538608D+03 -0.538608D+03 -0.538608D+03
      2   0.126478D+00 -0.412103D-01 -0.241749D-02  0.150392D-02  0.458719D-02
      3  -0.758676D-01 -0.724045D-01 -0.173189D-02 -0.117001D-02 -0.253112D-02
      4   0.537756D-02 -0.371841D-01  0.466394D-02 -0.282088D-04  0.111910D-03
      5  -0.312766D-01  0.128887D-01  0.686687D-03 -0.383095D-03 -0.153982D-02
      6   0.187633D-01  0.225835D-01  0.518690D-03  0.275647D-03  0.858726D-03
      7  -0.133171D-02  0.116013D-01 -0.136075D-02  0.108691D-05 -0.501409D-04
      8  -0.121495D-02 -0.339666D-02  0.206013D+00 -0.247805D-02 -0.106664D+00
      9  -0.207157D-02  0.118368D-02 -0.118580D+00 -0.413115D-02 -0.154756D+00
     10   0.130102D-02  0.603197D-03 -0.157035D-02 -0.454778D-03  0.419341D+00
     11   0.107383D-01 -0.807703D-01  0.323418D-01 -0.396848D-02  0.301938D+00
     12  -0.491377D-02 -0.314767D-01  0.922511D-01 -0.355303D-02 -0.312684D+00
     13   0.113227D-03  0.117975D-01 -0.118188D+00  0.655411D-03  0.105132D-01
     14   0.620216D-03  0.493706D-01  0.461037D-01  0.397667D-02  0.171028D+00
     15   0.521112D-02 -0.725807D-02 -0.533402D-01 -0.608431D-03  0.140191D+00
     16  -0.243301D-02 -0.194773D-02 -0.909437D-01  0.413013D-03 -0.701982D-01
                31            32            33            34            35 
      1  -0.538608D+03 -0.538604D+03 -0.538603D+03 -0.538601D+03 -0.538599D+03
      2   0.310478D-05  0.126004D-02 -0.225212D-01 -0.564943D-02  0.121584D-01
      3   0.990152D-03  0.110087D-02 -0.376520D-01  0.346786D-02 -0.722502D-02
      4  -0.280302D-02  0.812652D-04 -0.197530D-01 -0.150662D-03  0.886457D-04
      5  -0.216559D-04 -0.302108D-03  0.563102D-02  0.157173D-02 -0.303745D-02
      6  -0.248684D-03 -0.279508D-03  0.940938D-02 -0.971072D-03  0.181306D-02
      7   0.755753D-03 -0.226096D-04  0.492815D-02  0.408117D-04 -0.201247D-04
      8  -0.636969D-01 -0.689221D+00 -0.185806D-01 -0.207752D-01 -0.736401D-01
      9   0.359757D-01 -0.119170D+01 -0.317281D-01 -0.296345D-01 -0.937438D-01
     10   0.232547D-02 -0.612109D+00 -0.160803D-01  0.878167D-01  0.266935D+00
     11   0.115158D-02 -0.373731D+00  0.334648D+01  0.396771D-01  0.486135D-01
     12  -0.317849D-01  0.205488D+00  0.118955D+01 -0.444627D-01 -0.497852D-01
     13   0.437971D-01  0.683057D-01 -0.515563D+00  0.190999D-02  0.238078D-02
     14  -0.243670D-01 -0.543286D-01 -0.209640D+01  0.251413D-01  0.259990D-01
     15   0.219388D-01  0.525917D+00  0.336216D+00  0.178296D-01  0.223751D-01
     16   0.342003D-01 -0.339301D+00  0.803623D-01 -0.880263D-02 -0.101896D-01
                36            37            38            39            40 
      1  -0.538592D+03 -0.538590D+03 -0.538590D+03 -0.538588D+03 -0.538588D+03
      2   0.902899D-05  0.790025D-01  0.707913D+00 -0.395123D-01 -0.688908D-03
      3  -0.189643D-03 -0.474786D-01 -0.428566D+00 -0.705152D-01 -0.182062D-03
      4   0.286436D-03  0.419294D-02  0.375536D-01 -0.360968D-01 -0.568693D-03
      5  -0.170653D-04 -0.215202D-01 -0.196290D+00  0.152593D-01  0.134957D-03
      6   0.399967D-04  0.129064D-01  0.118828D+00  0.269969D-01 -0.100891D-04
      7  -0.258181D-04 -0.116656D-02 -0.103944D-01  0.138258D-01  0.316486D-03
      8  -0.107866D+00  0.103848D+00 -0.620907D-02  0.485266D-02  0.975367D+00
      9   0.669521D-01  0.140601D+00 -0.830020D-02  0.396658D-02 -0.590519D+00
     10  -0.674316D-02 -0.390325D+00  0.243145D-01  0.570596D-03  0.521163D-01
     11  -0.838417D-02 -0.277888D+00  0.141377D-01  0.256197D-01  0.953451D-01
     12  -0.172895D-01  0.290564D+00 -0.133052D-01  0.128769D-01  0.134988D+00
     13   0.246647D-01 -0.125894D-01  0.298686D-03 -0.631595D-02 -0.177493D+00
     14  -0.114976D-01 -0.156602D+00  0.642623D-02 -0.945784D-02  0.518479D-01
     15   0.989612D-02 -0.130905D+00  0.632327D-02 -0.170163D-02 -0.693385D-01
     16   0.205903D-01  0.627439D-01 -0.253525D-02  0.871121D-02 -0.134623D+00
 Unable to Open any file for archive entry.
 1\1\GINC-C3CPU-A7-U26-3\SP\RPBEPBE TD-FC\CC-pVDZ\C14H10\SILE6618\18-Oc
 t-2024\0\\#p PBEPBE/cc-pVDZ TD(NStates=40,Root=0)\\TD-DFT excited stat
 e calculation: PBE/cc-pVDZ\\0,1\C,0,10.7883,5.60957,26.3173\C,0,9.9242
 1,6.47424,25.63038\C,0,12.00347,5.21621,25.73742\C,0,10.27019,6.93771,
 24.337\C,0,11.47751,6.53025,23.74973\C,0,12.3503,5.68044,24.44474\C,0,
 12.8861,4.37527,26.43378\C,0,14.10475,4.00577,25.85792\C,0,14.44717,4.
 46338,24.58321\C,0,13.57402,5.29381,23.8745\C,0,8.7218,6.89549,26.2197
 9\C,0,7.87542,7.77343,25.53757\C,0,8.21584,8.23016,24.26138\C,0,9.4060
 4,7.81226,23.65865\H,0,8.44182,6.5545,27.20957\H,0,6.95432,8.10375,26.
 00104\H,0,7.55741,8.91257,23.73981\H,0,9.65406,8.17971,22.66967\H,0,10
 .52354,5.25562,27.30812\H,0,13.85852,5.64034,22.88784\H,0,15.39452,4.1
 7703,24.14417\H,0,12.6387,4.01237,27.42454\H,0,14.78634,3.36575,26.403
 15\H,0,11.74398,6.88702,22.76106\\Version=ES64L-G16RevC.02\State=1-A\H
 F=-538.8618051\RMSD=3.791e-09\PG=C01 [X(C14H10)]\\@
 The archive entry for this job was punched.


 A great many people think they are thinking when they
 are merely rearranging their prejudices.
                               -- William James
 Job cpu time:       0 days  1 hours 22 minutes 41.2 seconds.
 Elapsed time:       0 days  0 hours  2 minutes 48.2 seconds.
 File lengths (MBytes):  RWF=    809 Int=      0 D2E=      0 Chk=     96 Scr=      1
 Normal termination of Gaussian 16 at Fri Oct 18 14:39:58 2024.
