 vasp.6.3.2 27Jun22 (build Oct 28 2022 14:47:18) complex                        
  
 executed on             LinuxIFC date 2024.05.06  21:05:01
 running on  640 total cores
 distrk:  each k-point on  128 cores,    5 groups
 distr:  one band on NCORE=   8 cores,   16 groups


--------------------------------------------------------------------------------------------------------


 INCAR:
   SYSTEM = Si_surface_6layer
   ISTART = 1
   ICHARG = 11
   LWAVE = F
   LCHARG = F
   IVDW = 12
   ISPIN = 2
   NUPDOWN = 2
   ISMEAR = -5
   SIGMA = 0.01
   ENCUT = 540
   EDIFF = 1e-7
   NELMIN = 5
   EDIFFG = -9.5e-3
   PREC = Accurate
   IBRION = -1
   ISIF = 2
   POTIM = 0.5
   NSW = 0
   NBANDS = 640
   NCORE = 8
   KPAR = 5
   ISYM = 0
   IDIPOL = 3
   LORBIT = 11
   EMIN = -5
   EMAX = 3
   NEDOS = 4001

 POTCAR:    PAW_PBE C_GW 28Sep2005                
 POTCAR:    PAW_PBE H_GW 21Apr2008                
 POTCAR:    PAW_PBE Si_GW 04May2012               
 -----------------------------------------------------------------------------
|                                                                             |
|           W    W    AA    RRRRR   N    N  II  N    N   GGGG   !!!           |
|           W    W   A  A   R    R  NN   N  II  NN   N  G    G  !!!           |
|           W    W  A    A  R    R  N N  N  II  N N  N  G       !!!           |
|           W WW W  AAAAAA  RRRRR   N  N N  II  N  N N  G  GGG   !            |
|           WW  WW  A    A  R   R   N   NN  II  N   NN  G    G                |
|           W    W  A    A  R    R  N    N  II  N    N   GGGG   !!!           |
|                                                                             |
|     You use a magnetic or noncollinear calculation, but did not specify     |
|     the initial magnetic moment with the MAGMOM tag. Note that a            |
|     default of 8e-3 will be used for all atoms. This ferromagnetic          |
|     setup may break the symmetry of the crystal, in particular it may       |
|     rule out finding an antiferromagnetic solution. Thence, we              |
|     recommend setting the initial magnetic moment manually or verifying     |
|     carefully that this magnetic setup is desired.                          |
|                                                                             |
 -----------------------------------------------------------------------------

 -----------------------------------------------------------------------------
|                                                                             |
|           W    W    AA    RRRRR   N    N  II  N    N   GGGG   !!!           |
|           W    W   A  A   R    R  NN   N  II  NN   N  G    G  !!!           |
|           W    W  A    A  R    R  N N  N  II  N N  N  G       !!!           |
|           W WW W  AAAAAA  RRRRR   N  N N  II  N  N N  G  GGG   !            |
|           WW  WW  A    A  R   R   N   NN  II  N   NN  G    G                |
|           W    W  A    A  R    R  N    N  II  N    N   GGGG   !!!           |
|                                                                             |
|     For optimal performance we recommend to set                             |
|       NCORE = 2 up to number-of-cores-per-socket                            |
|     NCORE specifies how many cores store one orbital (NPAR=cpu/NCORE).      |
|     This setting can greatly improve the performance of VASP for DFT.       |
|     The default, NCORE=1 might be grossly inefficient on modern             |
|     multi-core architectures or massively parallel machines. Do your        |
|     own testing! More info at https://www.vasp.at/wiki/index.php/NCORE      |
|     Unfortunately you need to use the default for GW and RPA                |
|     calculations (for HF NCORE is supported but not extensively tested      |
|     yet).                                                                   |
|                                                                             |
 -----------------------------------------------------------------------------

 POTCAR:    PAW_PBE C_GW 28Sep2005                
   SHA256 =  2c64eee1059aeb37bcbfbbf93191b6229a866e6b7fb7be04c2badc02647cde23 C_GW/POTCAR           
   COPYR  = (c) Copyright 28Sep2005 Georg Kresse                                                    
   COPYR  = This file is part of the software VASP. Any use, copying, and all other rights are regul
   COPYR  = If you do not have a valid VASP license, you may not use, copy or distribute this file. 
   VRHFIN =C: s2p2                                                                                  
   LEXCH  = PE                                                                                      
   EATOM  =   147.1560 eV,   10.8157 Ry                                                             
                                                                                                    
   TITEL  = PAW_PBE C_GW 28Sep2005                                                                  
   LULTRA =        F    use ultrasoft PP ?                                                          
   IUNSCR =        0    unscreen: 0-lin 1-nonlin 2-no                                               
   RPACOR =    0.000    partial core radius                                                         
   POMASS =   12.011; ZVAL   =    4.000    mass and valenz                                          
   RCORE  =    1.500    outmost cutoff radius                                                       
   RWIGS  =    1.630; RWIGS  =    0.863    wigner-seitz radius (au A)                               
   ENMAX  =  413.992; ENMIN  =  310.494 eV                                                          
   ICORE  =        2    local potential                                                             
   LCOR   =        T    correct aug charges                                                         
   LPAW   =        T    paw PP                                                                      
   EAUG   =  644.873                                                                                
   DEXC   =    0.000                                                                                
   RMAX   =    1.529    core radius for proj-oper                                                   
   RAUG   =    1.300    factor for augmentation sphere                                              
   RDEP   =    1.501    radius for radial grids                                                     
   RDEPT  =    1.300    core radius for aug-charge                                                  
                                                                                                    
   Atomic configuration                                                                             
    4 entries                                                                                       
     n  l   j            E        occ.                                                              
     1  0  0.50      -273.3789   2.0000                                                             
     2  0  0.50       -13.7508   2.0000                                                             
     2  1  0.50        -5.2854   2.0000                                                             
     3  2  1.50        -5.4423   0.0000                                                             
   Description                                                                                      
     l       E           TYP  RCUT    TYP  RCUT                                                     
     0    -13.7508457     23  1.200                                                                 
     0     95.2407820     23  1.200                                                                 
     1     -5.2854382     23  1.500                                                                 
     1    108.8466080     23  1.500                                                                 
     2     -5.4423304      7  1.500                                                                 
  local pseudopotential read in
  kinetic energy density of atom read in
  atomic valenz-charges read in
  non local Contribution for L=           0  read in
    real space projection operators read in
  non local Contribution for L=           0  read in
    real space projection operators read in
  non local Contribution for L=           1  read in
    real space projection operators read in
  non local Contribution for L=           1  read in
    real space projection operators read in
    PAW grid and wavefunctions read in
 
   number of l-projection  operators is LMAX  =           4
   number of lm-projection operators is LMMAX =           8
 
 POTCAR:    PAW_PBE H_GW 21Apr2008                
   SHA256 =  cecc88617a3d1ece9865646f5d462fc0f44fd1f68d6f2eb08f18a2e421902afb H_GW/POTCAR           
   COPYR  = (c) Copyright 21Apr2008 Georg Kresse                                                    
   COPYR  = This file is part of the software VASP. Any use, copying, and all other rights are regul
   COPYR  = If you do not have a valid VASP license, you may not use, copy or distribute this file. 
   VRHFIN =H: ultrasoft test                                                                        
   LEXCH  = PE                                                                                      
   EATOM  =    12.4884 eV,    0.9179 Ry                                                             
                                                                                                    
   TITEL  = PAW_PBE H_GW 21Apr2008                                                                  
   LULTRA =        F    use ultrasoft PP ?                                                          
   IUNSCR =        0    unscreen: 0-lin 1-nonlin 2-no                                               
   RPACOR =    0.000    partial core radius                                                         
   POMASS =    1.000; ZVAL   =    1.000    mass and valenz                                          
   RCORE  =    1.100    outmost cutoff radius                                                       
   RWIGS  =    1.100; RWIGS  =    0.582    wigner-seitz radius (au A)                               
   ENMAX  =  300.000; ENMIN  =  250.000 eV                                                          
   RCLOC  =    0.701    cutoff for local pot                                                        
   LCOR   =        T    correct aug charges                                                         
   LPAW   =        T    paw PP                                                                      
   EAUG   =  500.000                                                                                
   RMAX   =    1.123    core radius for proj-oper                                                   
   RAUG   =    1.200    factor for augmentation sphere                                              
   RDEP   =    1.112    radius for radial grids                                                     
   RDEPT  =    1.100    core radius for aug-charge                                                  
                                                                                                    
   Atomic configuration                                                                             
    3 entries                                                                                       
     n  l   j            E        occ.                                                              
     1  0  0.50        -6.4927   1.0000                                                             
     2  1  0.50        -3.4015   0.0000                                                             
     3  2  1.50        13.6058   0.0000                                                             
   Description                                                                                      
     l       E           TYP  RCUT    TYP  RCUT                                                     
     0     -6.4927495     23  0.950                                                                 
     0      6.8029130     23  0.950                                                                 
     1     -4.0817478     23  1.100                                                                 
     1    108.8466080     23  1.100                                                                 
     2     81.6349560     23  1.100                                                                 
  local pseudopotential read in
  kinetic energy density of atom read in
  atomic valenz-charges read in
  non local Contribution for L=           0  read in
    real space projection operators read in
  non local Contribution for L=           0  read in
    real space projection operators read in
  non local Contribution for L=           1  read in
    real space projection operators read in
  non local Contribution for L=           1  read in
    real space projection operators read in
  non local Contribution for L=           2  read in
    real space projection operators read in
    PAW grid and wavefunctions read in
 
   number of l-projection  operators is LMAX  =           5
   number of lm-projection operators is LMMAX =          13
 
 POTCAR:    PAW_PBE Si_GW 04May2012               
   SHA256 =  9ee269d4247e69d62ab9db642b0c3f6e4981ddd1f39659ad08dec53e20e43eb1 Si_GW/POTCAR          
   COPYR  = (c) Copyright 04May2012 Georg Kresse                                                    
   COPYR  = This file is part of the software VASP. Any use, copying, and all other rights are regul
   COPYR  = If you do not have a valid VASP license, you may not use, copy or distribute this file. 
   VRHFIN =Si: s2p2                                                                                 
   LEXCH  = PE                                                                                      
   EATOM  =   103.0669 eV,    7.5752 Ry                                                             
                                                                                                    
   TITEL  = PAW_PBE Si_GW 04May2012                                                                 
   LULTRA =        F    use ultrasoft PP ?                                                          
   IUNSCR =        1    unscreen: 0-lin 1-nonlin 2-no                                               
   RPACOR =    1.500    partial core radius                                                         
   POMASS =   28.085; ZVAL   =    4.000    mass and valenz                                          
   RCORE  =    1.900    outmost cutoff radius                                                       
   RWIGS  =    2.480; RWIGS  =    1.312    wigner-seitz radius (au A)                               
   ENMAX  =  245.345; ENMIN  =  184.009 eV                                                          
   ICORE  =        3    local potential                                                             
   LCOR   =        T    correct aug charges                                                         
   LPAW   =        T    paw PP                                                                      
   EAUG   =  412.952                                                                                
   DEXC   =    0.000                                                                                
   RMAX   =    1.950    core radius for proj-oper                                                   
   RAUG   =    1.300    factor for augmentation sphere                                              
   RDEP   =    1.993    radius for radial grids                                                     
   RDEPT  =    2.000    core radius for aug-charge                                                  
                                                                                                    
   Atomic configuration                                                                             
    7 entries                                                                                       
     n  l   j            E        occ.                                                              
     1  0  0.50     -1785.8828   2.0000                                                             
     2  0  0.50      -139.4969   2.0000                                                             
     2  1  1.50       -95.5546   6.0000                                                             
     3  0  0.50       -10.8127   2.0000                                                             
     3  1  0.50        -4.0811   2.0000                                                             
     3  2  1.50        -4.0817   0.0000                                                             
     4  3  2.50        -4.0817   0.0000                                                             
   Description                                                                                      
     l       E           TYP  RCUT    TYP  RCUT                                                     
     0    -10.8127223     23  1.900                                                                 
     0     95.2407820     23  1.900                                                                 
     1     -4.0811372     23  1.900                                                                 
     1     54.4233040     23  1.900                                                                 
     2     -8.1634956     23  1.900                                                                 
     2     81.6349560     23  1.900                                                                 
     3     27.2116520     23  1.900                                                                 
  local pseudopotential read in
  partial core-charges read in
  partial kinetic energy density read in
  kinetic energy density of atom read in
  atomic valenz-charges read in
  non local Contribution for L=           0  read in
    real space projection operators read in
  non local Contribution for L=           0  read in
    real space projection operators read in
  non local Contribution for L=           1  read in
    real space projection operators read in
  non local Contribution for L=           1  read in
    real space projection operators read in
  non local Contribution for L=           2  read in
    real space projection operators read in
  non local Contribution for L=           2  read in
    real space projection operators read in
    PAW grid and wavefunctions read in
 
   number of l-projection  operators is LMAX  =           6
   number of lm-projection operators is LMMAX =          18
 
 -----------------------------------------------------------------------------
|                                                                             |
|               ----> ADVICE to this user running VASP <----                  |
|                                                                             |
|     You have a (more or less) 'large supercell' and for larger cells it     |
|     might be more efficient to use real-space projection operators.         |
|     Therefore, try LREAL= Auto in the INCAR file.                           |
|     Mind: For very accurate calculation, you might also keep the            |
|     reciprocal projection scheme (i.e. LREAL=.FALSE.).                      |
|                                                                             |
 -----------------------------------------------------------------------------

  PAW_PBE C_GW 28Sep2005                :
 energy of atom  1       EATOM= -147.1560
 kinetic energy error for atom=    0.0068 (will be added to EATOM!!)
  PAW_PBE H_GW 21Apr2008                :
 energy of atom  2       EATOM=  -12.4884
 kinetic energy error for atom=    0.0069 (will be added to EATOM!!)
  PAW_PBE Si_GW 04May2012               :
 energy of atom  3       EATOM= -103.0669
 kinetic energy error for atom=    0.0005 (will be added to EATOM!!)
 
 
 POSCAR: 4x4_si_surface_from540eV_1x1x1conv
  positions in direct lattice
  velocities in cartesian coordinates
 exchange correlation table for  LEXCH =        8
   RHO(1)=    0.500       N(1)  =     2000
   RHO(2)=  100.500       N(2)  =     4000
 


--------------------------------------------------------------------------------------------------------


 ion  position               nearest neighbor table
   1  0.578  0.445  0.610-   3 1.42   2 1.42   6 1.47
   2  0.530  0.396  0.627-   1 1.42   8 1.43   4 1.45
   3  0.634  0.476  0.631-   1 1.42   9 1.43   5 1.44
   4  0.537  0.381  0.665-   7 1.40  10 1.43   2 1.45
   5  0.642  0.459  0.669-   7 1.40  11 1.43   3 1.44
   6  0.576  0.458  0.571-  22 1.10  12 1.35   1 1.47
   7  0.593  0.413  0.685-  17 1.09   4 1.40   5 1.40
   8  0.478  0.357  0.607-  18 1.09  13 1.37   2 1.43
   9  0.682  0.527  0.616-  19 1.09  14 1.37   3 1.43
  10  0.489  0.333  0.681-  20 1.09  15 1.37   4 1.43
  11  0.700  0.491  0.690-  21 1.09  16 1.37   5 1.43
  12  0.495  0.497  0.550-  23 1.10   6 1.35 238 1.87
  13  0.433  0.309  0.624-  24 1.09   8 1.37  15 1.42
  14  0.737  0.556  0.637-  25 1.09   9 1.37  16 1.42
  15  0.437  0.298  0.661-  26 1.09  10 1.37  13 1.42
  16  0.746  0.537  0.674-  27 1.09  11 1.37  14 1.42
  17  0.598  0.401  0.714-   7 1.09
  18  0.475  0.363  0.578-   8 1.09
  19  0.674  0.544  0.588-   9 1.09
  20  0.495  0.323  0.710-  10 1.09
  21  0.705  0.477  0.719-  11 1.09
  22  0.650  0.433  0.559-   6 1.10
  23  0.420  0.526  0.562-  12 1.10
  24  0.394  0.279  0.608-  13 1.09
  25  0.773  0.594  0.625-  14 1.09
  26  0.401  0.261  0.674-  15 1.09
  27  0.790  0.561  0.690-  16 1.09
  28  0.000  1.000  0.023-  59 1.50
  29  0.500  1.000  0.023-  60 1.50
  30  0.000  0.500  0.023-  61 1.50
  31  0.500  0.500  0.023-  62 1.50
  32  0.250  1.000  0.023-  63 1.50
  33  0.750  1.000  0.023-  64 1.50
  34  0.250  0.500  0.023-  65 1.50
  35  0.750  0.500  0.023-  66 1.50
  36  0.000  0.250  0.023-  67 1.50
  37  0.500  0.250  0.023-  68 1.50
  38  0.000  0.750  0.023-  69 1.50
  39  0.500  0.750  0.023-  70 1.50
  40  0.250  0.250  0.023-  71 1.50
  41  0.750  0.250  0.023-  72 1.50
  42  0.250  0.750  0.023-  73 1.50
  43  0.750  0.750  0.023-  74 1.50
  44  0.000  1.000  0.540- 235 1.50
  45  0.500  0.000  0.540- 236 1.50
  46  0.000  0.499  0.540- 237 1.50
  47  0.251  1.000  0.540- 239 1.50
  48  0.751  1.000  0.540- 240 1.50
  49  0.252  0.499  0.540- 241 1.51
  50  0.755  0.499  0.539- 242 1.50
  51  0.000  0.250  0.539- 243 1.50
  52  0.501  0.247  0.539- 244 1.50
  53  0.000  0.750  0.540- 245 1.50
  54  0.501  0.749  0.540- 246 1.50
  55  0.252  0.249  0.540- 247 1.51
  56  0.753  0.247  0.540- 248 1.50
  57  0.251  0.749  0.540- 249 1.50
  58  0.751  0.749  0.540- 250 1.50
  59  0.000  1.000  0.063-  28 1.50  83 2.34  79 2.34  87 2.34
  60  0.500  1.000  0.063-  29 1.50  84 2.34  80 2.34  88 2.34
  61  0.000  0.500  0.063-  30 1.50  85 2.34  81 2.34  89 2.34
  62  0.500  0.500  0.063-  31 1.50  86 2.34  82 2.34  90 2.34
  63  0.250  1.000  0.063-  32 1.50  87 2.34  76 2.34  84 2.34
  64  0.750  1.000  0.063-  33 1.50  88 2.34  75 2.34  83 2.34
  65  0.250  0.500  0.063-  34 1.50  89 2.34  78 2.34  86 2.34
  66  0.750  0.500  0.063-  35 1.50  90 2.34  77 2.34  85 2.34
  67  0.000  0.250  0.063-  36 1.50  77 2.34  81 2.34  87 2.34
  68  0.500  0.250  0.063-  37 1.50  78 2.34  88 2.34  82 2.34
  69  0.000  0.750  0.063-  38 1.50  75 2.34  79 2.34  89 2.34
  70  0.500  0.750  0.063-  39 1.50  76 2.34  80 2.34  90 2.34
  71  0.250  0.250  0.063-  40 1.50  81 2.34  78 2.34  84 2.34
  72  0.750  0.250  0.063-  41 1.50  82 2.34  83 2.34  77 2.34
  73  0.250  0.750  0.063-  42 1.50  79 2.34  76 2.34  86 2.34
  74  0.750  0.750  0.063-  43 1.50  80 2.34  75 2.34  85 2.34
  75  0.834  0.833  0.083-  69 2.34  64 2.34  74 2.34  91 2.35
  76  0.334  0.833  0.083-  70 2.34  63 2.34  73 2.34  92 2.35
  77  0.834  0.333  0.083-  67 2.34  72 2.34  66 2.34  93 2.35
  78  0.334  0.333  0.083-  68 2.34  65 2.34  71 2.34  94 2.35
  79  0.084  0.833  0.083-  73 2.34  69 2.34  59 2.34  95 2.35
  80  0.584  0.833  0.083-  74 2.34  70 2.34  60 2.34  96 2.35
  81  0.084  0.333  0.083-  71 2.34  61 2.34  67 2.34  97 2.35
  82  0.584  0.333  0.083-  72 2.34  62 2.34  68 2.34  98 2.35
  83  0.834  0.083  0.083-  59 2.34  72 2.34  64 2.34  99 2.35
  84  0.334  0.083  0.083-  60 2.34  71 2.34  63 2.34 100 2.35
  85  0.834  0.583  0.083-  61 2.34  66 2.34  74 2.34 101 2.35
  86  0.334  0.583  0.083-  62 2.34  65 2.34  73 2.34 102 2.35
  87  0.084  0.083  0.083-  63 2.34  67 2.34  59 2.34 103 2.35
  88  0.584  0.083  0.083-  64 2.34  68 2.34  60 2.34 104 2.35
  89  0.084  0.583  0.083-  65 2.34  69 2.34  61 2.34 105 2.35
  90  0.584  0.583  0.083-  66 2.34  62 2.34  70 2.34 106 2.35
  91  0.834  0.833  0.146-  75 2.35 115 2.35 119 2.35 111 2.35
  92  0.334  0.833  0.146-  76 2.35 116 2.35 112 2.35 120 2.35
  93  0.834  0.333  0.146-  77 2.35 117 2.35 113 2.35 121 2.35
  94  0.334  0.333  0.146-  78 2.35 118 2.35 114 2.35 122 2.35
  95  0.084  0.833  0.146-  79 2.35 119 2.35 116 2.35 108 2.35
  96  0.584  0.833  0.146-  80 2.35 120 2.35 115 2.35 107 2.35
  97  0.084  0.333  0.146-  81 2.35 121 2.35 110 2.35 118 2.35
  98  0.584  0.333  0.146-  82 2.35 122 2.35 109 2.35 117 2.35
  99  0.834  0.083  0.146-  83 2.35 109 2.35 119 2.35 113 2.35
 100  0.334  0.083  0.146-  84 2.35 110 2.35 114 2.35 120 2.35
 101  0.834  0.583  0.146-  85 2.35 107 2.35 121 2.35 111 2.35
 102  0.334  0.583  0.146-  86 2.35 108 2.35 122 2.35 112 2.35
 103  0.084  0.083  0.146-  87 2.35 113 2.35 116 2.35 110 2.35
 104  0.584  0.083  0.146-  88 2.35 114 2.35 115 2.35 109 2.35
 105  0.084  0.583  0.146-  89 2.35 111 2.35 108 2.35 118 2.35
 106  0.584  0.583  0.146-  90 2.35 112 2.35 117 2.35 107 2.35
 107  0.667  0.666  0.167- 123 2.35 101 2.35  96 2.35 106 2.35
 108  0.167  0.666  0.167- 124 2.35 102 2.35 105 2.35  95 2.35
 109  0.667  0.166  0.167- 125 2.35  99 2.35  98 2.35 104 2.35
 110  0.167  0.167  0.167- 126 2.35  97 2.35 103 2.35 100 2.35
 111  0.917  0.666  0.167- 127 2.35 105 2.35  91 2.35 101 2.35
 112  0.417  0.666  0.167- 128 2.35 106 2.35  92 2.35 102 2.35
 113  0.917  0.166  0.167- 129 2.35 103 2.35  93 2.35  99 2.35
 114  0.417  0.166  0.167- 130 2.35 104 2.35  94 2.35 100 2.35
 115  0.667  0.916  0.167- 131 2.35  91 2.35  96 2.35 104 2.35
 116  0.167  0.916  0.167- 132 2.35  92 2.35  95 2.35 103 2.35
 117  0.667  0.416  0.167- 133 2.35  93 2.35 106 2.35  98 2.35
 118  0.167  0.416  0.167- 134 2.35  94 2.35  97 2.35 105 2.35
 119  0.917  0.916  0.167- 135 2.35  95 2.35  91 2.35  99 2.35
 120  0.417  0.916  0.167- 136 2.35  96 2.35  92 2.35 100 2.35
 121  0.917  0.416  0.167- 137 2.35  97 2.35 101 2.35  93 2.35
 122  0.417  0.416  0.167- 138 2.35  98 2.35  94 2.35 102 2.35
 123  0.667  0.667  0.229- 107 2.35 147 2.35 143 2.35 151 2.35
 124  0.167  0.666  0.229- 108 2.35 148 2.35 152 2.35 144 2.35
 125  0.667  0.167  0.229- 109 2.35 149 2.35 153 2.35 145 2.35
 126  0.167  0.167  0.229- 110 2.35 146 2.35 154 2.35 150 2.35
 127  0.917  0.666  0.229- 111 2.35 151 2.35 148 2.35 140 2.35
 128  0.417  0.666  0.229- 112 2.35 152 2.35 147 2.35 139 2.35
 129  0.917  0.167  0.229- 113 2.35 153 2.35 150 2.35 142 2.35
 130  0.417  0.167  0.229- 114 2.35 154 2.35 141 2.35 149 2.35
 131  0.667  0.916  0.229- 115 2.35 141 2.35 145 2.35 151 2.35
 132  0.167  0.916  0.229- 116 2.35 142 2.35 146 2.35 152 2.35
 133  0.667  0.416  0.229- 117 2.35 139 2.35 143 2.35 153 2.35
 134  0.167  0.416  0.229- 118 2.35 140 2.35 144 2.35 154 2.35
 135  0.917  0.916  0.229- 119 2.35 145 2.35 142 2.35 148 2.35
 136  0.417  0.916  0.229- 120 2.35 146 2.35 141 2.35 147 2.35
 137  0.917  0.416  0.229- 121 2.35 143 2.35 150 2.35 140 2.35
 138  0.417  0.416  0.229- 122 2.35 144 2.35 139 2.35 149 2.35
 139  0.500  0.500  0.250- 155 2.34 133 2.35 138 2.35 128 2.35
 140  0.000  0.500  0.250- 156 2.35 134 2.35 127 2.35 137 2.35
 141  0.500  1.000  0.250- 157 2.34 131 2.35 136 2.35 130 2.35
 142  0.000  1.000  0.250- 158 2.34 132 2.35 135 2.35 129 2.35
 143  0.750  0.500  0.250- 159 2.34 137 2.35 123 2.35 133 2.35
 144  0.250  0.500  0.250- 160 2.34 134 2.35 138 2.35 124 2.35
 145  0.750  1.000  0.250- 161 2.34 135 2.35 131 2.35 125 2.35
 146  0.250  1.000  0.250- 162 2.34 136 2.35 132 2.35 126 2.35
 147  0.500  0.750  0.250- 163 2.35 123 2.35 128 2.35 136 2.35
 148  0.000  0.750  0.250- 164 2.35 124 2.35 127 2.35 135 2.35
 149  0.500  0.250  0.250- 165 2.35 125 2.35 138 2.35 130 2.35
 150  0.000  0.250  0.250- 166 2.35 137 2.35 129 2.35 126 2.35
 151  0.750  0.750  0.250- 167 2.34 127 2.35 131 2.35 123 2.35
 152  0.250  0.750  0.250- 168 2.35 128 2.35 124 2.35 132 2.35
 153  0.750  0.250  0.250- 169 2.35 129 2.35 125 2.35 133 2.35
 154  0.250  0.250  0.250- 170 2.35 130 2.35 134 2.35 126 2.35
 155  0.500  0.500  0.312- 139 2.34 175 2.35 179 2.35 183 2.35
 156  0.001  0.500  0.312- 140 2.35 180 2.35 184 2.35 176 2.35
 157  0.501  1.000  0.312- 141 2.34 181 2.35 185 2.35 177 2.35
 158  0.001  1.000  0.312- 142 2.34 182 2.35 186 2.35 178 2.35
 159  0.750  0.500  0.312- 143 2.34 183 2.35 172 2.35 180 2.35
 160  0.250  0.500  0.312- 144 2.34 179 2.35 184 2.35 171 2.35
 161  0.751  1.000  0.312- 145 2.34 182 2.35 185 2.35 174 2.35
 162  0.251  1.000  0.312- 146 2.34 186 2.35 181 2.35 173 2.35
 163  0.501  0.750  0.312- 147 2.35 173 2.35 177 2.35 183 2.35
 164  0.001  0.750  0.312- 148 2.35 174 2.35 178 2.35 184 2.35
 165  0.501  0.250  0.312- 149 2.35 171 2.35 185 2.35 175 2.35
 166  0.000  0.250  0.312- 150 2.35 186 2.35 176 2.35 172 2.35
 167  0.750  0.750  0.312- 151 2.34 177 2.35 180 2.35 174 2.35
 168  0.251  0.750  0.312- 152 2.35 178 2.35 173 2.35 179 2.35
 169  0.750  0.250  0.312- 153 2.35 172 2.35 175 2.35 182 2.35
 170  0.251  0.250  0.312- 154 2.35 176 2.35 181 2.35 171 2.35
 171  0.334  0.333  0.333- 187 2.34 160 2.35 165 2.35 170 2.35
 172  0.833  0.333  0.333- 188 2.35 159 2.35 169 2.35 166 2.35
 173  0.334  0.833  0.333- 189 2.35 163 2.35 162 2.35 168 2.35
 174  0.834  0.833  0.333- 190 2.35 164 2.35 167 2.35 161 2.35
 175  0.584  0.333  0.333- 191 2.34 155 2.35 169 2.35 165 2.35
 176  0.084  0.333  0.333- 192 2.34 170 2.35 156 2.35 166 2.35
 177  0.584  0.833  0.333- 193 2.35 167 2.35 157 2.35 163 2.35
 178  0.084  0.833  0.333- 194 2.35 168 2.35 164 2.35 158 2.35
 179  0.334  0.583  0.333- 195 2.34 160 2.35 155 2.35 168 2.35
 180  0.834  0.583  0.333- 196 2.34 156 2.35 167 2.35 159 2.35
 181  0.334  0.083  0.333- 197 2.35 162 2.35 157 2.35 170 2.35
 182  0.834  0.083  0.333- 198 2.35 161 2.35 158 2.35 169 2.35
 183  0.584  0.583  0.333- 199 2.35 159 2.35 155 2.35 163 2.35
 184  0.084  0.583  0.333- 200 2.35 160 2.35 156 2.35 164 2.35
 185  0.584  0.083  0.333- 201 2.35 161 2.35 157 2.35 165 2.35
 186  0.084  0.083  0.333- 162 2.35 202 2.35 158 2.35 166 2.35
 187  0.334  0.333  0.396- 171 2.34 215 2.35 207 2.35 211 2.35
 188  0.834  0.333  0.396- 172 2.35 216 2.35 208 2.35 212 2.35
 189  0.334  0.833  0.396- 173 2.35 213 2.35 209 2.35 217 2.35
 190  0.834  0.833  0.396- 174 2.35 214 2.35 218 2.35 210 2.35
 191  0.584  0.333  0.396- 175 2.34 215 2.35 204 2.35 212 2.35
 192  0.084  0.333  0.396- 176 2.34 216 2.35 203 2.35 211 2.35
 193  0.584  0.833  0.396- 177 2.35 206 2.35 217 2.35 214 2.35
 194  0.084  0.833  0.396- 178 2.35 218 2.35 213 2.35 205 2.35
 195  0.334  0.583  0.396- 179 2.34 215 2.35 209 2.35 205 2.35
 196  0.834  0.583  0.396- 180 2.34 216 2.35 210 2.35 206 2.35
 197  0.334  0.083  0.396- 181 2.35 207 2.35 203 2.35 217 2.35
 198  0.834  0.083  0.396- 182 2.35 204 2.35 208 2.35 218 2.35
 199  0.584  0.583  0.396- 183 2.35 209 2.35 206 2.35 212 2.35
 200  0.084  0.583  0.396- 184 2.35 210 2.35 205 2.35 211 2.35
 201  0.584  0.083  0.396- 185 2.35 207 2.35 214 2.35 204 2.35
 202  0.084  0.083  0.396- 186 2.35 208 2.35 203 2.35 213 2.35
 203  0.167  0.166  0.417- 219 2.35 197 2.35 192 2.35 202 2.35
 204  0.667  0.166  0.417- 220 2.35 198 2.35 191 2.35 201 2.35
 205  0.167  0.666  0.417- 221 2.35 195 2.35 200 2.35 194 2.35
 206  0.667  0.666  0.417- 222 2.35 193 2.35 199 2.35 196 2.35
 207  0.417  0.166  0.416- 223 2.34 197 2.35 187 2.35 201 2.35
 208  0.917  0.166  0.416- 224 2.35 202 2.35 188 2.35 198 2.35
 209  0.417  0.666  0.416- 225 2.35 199 2.35 195 2.35 189 2.35
 210  0.917  0.666  0.417- 226 2.35 200 2.35 196 2.35 190 2.35
 211  0.167  0.416  0.417- 227 2.35 187 2.35 200 2.35 192 2.35
 212  0.667  0.416  0.417- 199 2.35 191 2.35 188 2.35 228 2.35
 213  0.167  0.916  0.417- 229 2.35 189 2.35 194 2.35 202 2.35
 214  0.667  0.916  0.417- 230 2.35 190 2.35 193 2.35 201 2.35
 215  0.417  0.416  0.416- 231 2.34 187 2.35 191 2.35 195 2.35
 216  0.918  0.416  0.416- 232 2.34 192 2.35 196 2.35 188 2.35
 217  0.417  0.916  0.417- 233 2.35 193 2.35 189 2.35 197 2.35
 218  0.917  0.916  0.417- 234 2.35 194 2.35 190 2.35 198 2.35
 219  0.167  0.166  0.479- 243 2.34 239 2.34 247 2.34 203 2.35
 220  0.668  0.166  0.479- 244 2.34 240 2.34 248 2.34 204 2.35
 221  0.167  0.666  0.479- 249 2.34 245 2.34 241 2.34 205 2.35
 222  0.667  0.666  0.479- 242 2.34 250 2.34 246 2.34 206 2.35
 223  0.417  0.166  0.479- 244 2.34 247 2.34 207 2.34 236 2.34
 224  0.917  0.166  0.479- 248 2.34 235 2.34 243 2.34 208 2.35
 225  0.417  0.666  0.479- 249 2.34 246 2.34 209 2.35 238 2.35
 226  0.917  0.666  0.479- 237 2.34 250 2.34 245 2.34 210 2.35
 227  0.168  0.416  0.479- 237 2.34 247 2.34 241 2.34 211 2.35
 228  0.667  0.416  0.480- 242 2.34 248 2.35 238 2.35 212 2.35
 229  0.167  0.916  0.479- 235 2.34 249 2.34 239 2.34 213 2.35
 230  0.667  0.916  0.479- 236 2.34 240 2.34 250 2.34 214 2.35
 231  0.418  0.416  0.479- 215 2.34 241 2.34 244 2.35 238 2.35
 232  0.918  0.416  0.479- 242 2.34 216 2.34 237 2.34 243 2.34
 233  0.418  0.916  0.479- 239 2.34 236 2.34 246 2.34 217 2.35
 234  0.917  0.916  0.479- 240 2.34 235 2.34 245 2.34 218 2.35
 235  0.001  1.000  0.499-  44 1.50 229 2.34 224 2.34 234 2.34
 236  0.501  1.000  0.499-  45 1.50 230 2.34 223 2.34 233 2.34
 237  0.001  0.499  0.499-  46 1.50 232 2.34 227 2.34 226 2.34
 238  0.500  0.500  0.500-  12 1.87 228 2.35 225 2.35 231 2.35
 239  0.251  0.999  0.500-  47 1.50 229 2.34 233 2.34 219 2.34
 240  0.751  1.000  0.500-  48 1.50 220 2.34 234 2.34 230 2.34
 241  0.251  0.499  0.499-  49 1.51 227 2.34 231 2.34 221 2.34
 242  0.752  0.499  0.499-  50 1.50 232 2.34 222 2.34 228 2.34
 243  0.001  0.249  0.499-  51 1.50 232 2.34 219 2.34 224 2.34
 244  0.501  0.249  0.499-  52 1.50 223 2.34 220 2.34 231 2.35
 245  0.001  0.749  0.500-  53 1.50 226 2.34 221 2.34 234 2.34
 246  0.501  0.749  0.500-  54 1.50 222 2.34 225 2.34 233 2.34
 247  0.251  0.249  0.499-  55 1.51 223 2.34 227 2.34 219 2.34
 248  0.751  0.249  0.500-  56 1.50 224 2.34 220 2.34 228 2.35
 249  0.251  0.750  0.499-  57 1.50 225 2.34 229 2.34 221 2.34
 250  0.751  0.749  0.500-  58 1.50 222 2.34 226 2.34 230 2.34
 

IMPORTANT INFORMATION: All symmetrisations will be switched off!
NOSYMM: (Re-)initialisation of all symmetry stuff for point group C_1.


----------------------------------------------------------------------------------------

                                     Primitive cell                                     

  volume of cell :    7646.9211

  direct lattice vectors                    reciprocal lattice vectors
    15.332987785  0.000000000  0.000000000     0.065218861 -0.037654127  0.000000000
     7.666493893 13.278756938  0.000000000     0.000000000  0.075308254  0.000000000
     0.000000000  0.000000000 37.557994843     0.000000000  0.000000000  0.026625490

  length of vectors
    15.332987785 15.332987785 37.557994843     0.075308254  0.075308254  0.026625490

  position of ions in fractional coordinates (direct lattice)
     0.578086633  0.444526411  0.610203488
     0.529923404  0.396106360  0.626534915
     0.634260803  0.476029498  0.631245031
     0.537330475  0.381178513  0.664716147
     0.642214856  0.459145846  0.669209282
     0.576148866  0.458035155  0.571429789
     0.592982736  0.412892231  0.684926114
     0.477562018  0.356678902  0.606942888
     0.682137106  0.526864085  0.616282920
     0.488879372  0.332576819  0.681063364
     0.699514371  0.490771534  0.689857114
     0.494632748  0.497178302  0.549991572
     0.432896898  0.309277733  0.623589217
     0.737080752  0.555911494  0.636997976
     0.437376984  0.297981394  0.661187856
     0.746381484  0.537349312  0.674237289
     0.598454887  0.400829776  0.713706228
     0.474539537  0.363032377  0.578083705
     0.673935936  0.543961548  0.587904816
     0.494659245  0.322793695  0.709924672
     0.705046030  0.477166550  0.718521239
     0.649977775  0.432997540  0.559257442
     0.420121399  0.526230809  0.562115673
     0.394420391  0.279129697  0.607689623
     0.773249011  0.594296592  0.624792795
     0.401083701  0.260633757  0.674040844
     0.790095779  0.560997354  0.690335366
     0.000258048  0.999861201  0.022776801
     0.500171273  0.999888120  0.022777097
     0.000272880  0.499820353  0.022763504
     0.500277244  0.499799939  0.022770485
     0.250308257  0.999859159  0.022785811
     0.750323530  0.999829279  0.022769821
     0.250309012  0.499799553  0.022770176
     0.750306078  0.499781069  0.022772755
     0.000282418  0.249770284  0.022771063
     0.500284335  0.249813878  0.022766466
     0.000297087  0.749765650  0.022756233
     0.500286382  0.749765067  0.022756337
     0.250351322  0.249709403  0.022778405
     0.750315105  0.249774601  0.022777147
     0.250332678  0.749752333  0.022763216
     0.750348845  0.749748737  0.022755012
     0.000468898  0.999883681  0.539524817
     0.500271228  0.000218257  0.539511187
     0.000165557  0.499307394  0.539527181
     0.250581257  0.999552170  0.539564106
     0.750510588  0.999774456  0.539588283
     0.251754821  0.499025283  0.539559807
     0.755101090  0.499425596  0.539006799
     0.000073321  0.250131964  0.539433306
     0.500672988  0.247279724  0.539029835
     0.000482685  0.749592811  0.539568814
     0.501003991  0.748718178  0.539645960
     0.251547524  0.249062155  0.539514961
     0.752717120  0.246673647  0.539644592
     0.250781393  0.749475653  0.539553951
     0.750512600  0.749229346  0.539576883
     0.000288393  0.999811578  0.062830225
     0.500263008  0.999820299  0.062830628
     0.000288479  0.499802406  0.062816971
     0.500288805  0.499798000  0.062824191
     0.250297513  0.999811023  0.062839200
     0.750303122  0.999803453  0.062823305
     0.250295969  0.499796800  0.062823685
     0.750296238  0.499792845  0.062826505
     0.000291815  0.249789574  0.062824523
     0.500290777  0.249800971  0.062820041
     0.000295949  0.749788231  0.062809507
     0.500292429  0.749790095  0.062809725
     0.250305138  0.249776811  0.062831872
     0.750298650  0.249791722  0.062830839
     0.250302719  0.749787207  0.062816527
     0.750308320  0.749786464  0.062808430
     0.833640171  0.833121759  0.083268998
     0.333641206  0.833119006  0.083274189
     0.833637057  0.333125188  0.083285951
     0.333634420  0.333126757  0.083279724
     0.083635634  0.833118811  0.083264466
     0.583642693  0.833119498  0.083256180
     0.083629439  0.333131635  0.083270353
     0.583631601  0.333127477  0.083279272
     0.833635065  0.083130087  0.083295885
     0.333626943  0.083133658  0.083317596
     0.833634671  0.583128984  0.083280294
     0.333633437  0.583126669  0.083285466
     0.083635407  0.083131563  0.083293178
     0.583637726  0.083130129  0.083274167
     0.083632479  0.583127168  0.083275942
     0.583630313  0.583130289  0.083277196
     0.833638882  0.833119323  0.145739359
     0.333641421  0.833113328  0.145744130
     0.833635767  0.333125113  0.145756523
     0.333633040  0.333126180  0.145749854
     0.083638045  0.833111466  0.145733498
     0.583652200  0.833111036  0.145724612
     0.083623260  0.333139251  0.145739376
     0.583629303  0.333125399  0.145749357
     0.833635450  0.083126948  0.145767978
     0.333622048  0.083136606  0.145791505
     0.833633407  0.583127845  0.145751866
     0.333633857  0.583122384  0.145757081
     0.083638000  0.083126810  0.145764501
     0.583641939  0.083122844  0.145743752
     0.083633932  0.583121767  0.145746765
     0.583628515  0.583127272  0.145747745
     0.666967345  0.666461818  0.166662367
     0.166966254  0.666456103  0.166667654
     0.666958950  0.166464325  0.166675066
     0.166923338  0.166512262  0.166690616
     0.916977408  0.666458779  0.166667566
     0.416976955  0.666452914  0.166673465
     0.916979057  0.166462756  0.166684298
     0.417003359  0.166468092  0.166678592
     0.666977049  0.916443812  0.166652505
     0.166979567  0.916426685  0.166658999
     0.666967060  0.416458741  0.166665799
     0.166969903  0.416452530  0.166665603
     0.916992414  0.916429425  0.166662785
     0.417023013  0.916405461  0.166660713
     0.916979831  0.416458270  0.166669843
     0.416975763  0.416447923  0.166672530
     0.666912556  0.666502476  0.229105666
     0.166913882  0.666490138  0.229111165
     0.666903436  0.166505724  0.229118913
     0.166840613  0.166608140  0.229136407
     0.916925311  0.666498542  0.229111388
     0.416925192  0.666478693  0.229118228
     0.916925132  0.166502431  0.229128584
     0.416964144  0.166514352  0.229120538
     0.666917980  0.916482329  0.229092941
     0.166949511  0.916440725  0.229097173
     0.666915953  0.416489631  0.229106307
     0.166920587  0.416475892  0.229107559
     0.916948736  0.916463256  0.229103878
     0.417010307  0.916404247  0.229099244
     0.916938365  0.416491747  0.229113132
     0.416920364  0.416479439  0.229116097
     0.500279605  0.499793857  0.249937519
     0.000286671  0.499823242  0.249937952
     0.500286639  0.999800503  0.249909252
     0.000320785  0.999766052  0.249915734
     0.750281513  0.499817550  0.249908060
     0.250254542  0.499798924  0.249923319
     0.750288248  0.999772072  0.249896392
     0.250322103  0.999810994  0.249824807
     0.500318885  0.749731064  0.249973863
     0.000283893  0.749798358  0.249950081
     0.500294209  0.249847725  0.249995336
     0.000166902  0.249892458  0.250013053
     0.750269353  0.749823093  0.249921799
     0.250286579  0.749772429  0.249951377
     0.750254571  0.249828026  0.249945387
     0.250348836  0.249822840  0.249956459
     0.500493109  0.499630213  0.312372416
     0.000507307  0.499689639  0.312374920
     0.500513375  0.999625862  0.312331915
     0.000590720  0.999563396  0.312340826
     0.750462294  0.499707252  0.312329054
     0.250444293  0.499655575  0.312349588
     0.750511289  0.999576747  0.312311381
     0.250602186  0.999606788  0.312202513
     0.500567019  0.749502778  0.312426865
     0.000501301  0.749638379  0.312391430
     0.500538468  0.249743536  0.312456757
     0.000225418  0.249850437  0.312479347
     0.750462115  0.749692559  0.312351137
     0.250517905  0.749579906  0.312392712
     0.750410855  0.249707311  0.312383950
     0.250663698  0.249703631  0.312397063
     0.333911628  0.333137870  0.333310336
     0.833404779  0.333254099  0.333320618
     0.333805799  0.833063841  0.333122551
     0.833840370  0.832953095  0.333205044
     0.583872199  0.333105981  0.333323419
     0.083986655  0.332956314  0.333153695
     0.583829045  0.832981765  0.333189875
     0.083885774  0.832911193  0.333230734
     0.333845377  0.582840264  0.333200663
     0.833818555  0.583026469  0.333164275
     0.333845168  0.082899578  0.333107918
     0.833881974  0.082883388  0.333082199
     0.583984017  0.582734466  0.333262771
     0.083862022  0.582975805  0.333245069
     0.583900392  0.082907848  0.333149076
     0.084068261  0.082895808  0.333035290
     0.333818745  0.332878678  0.395673400
     0.833502811  0.333102581  0.395774824
     0.333850525  0.832928725  0.395577044
     0.833873502  0.832938974  0.395655133
     0.584013781  0.332964739  0.395756769
     0.084227881  0.332777202  0.395557178
     0.583855052  0.832978807  0.395628108
     0.083912583  0.832879580  0.395681682
     0.333836098  0.582897939  0.395610381
     0.833860745  0.582987014  0.395599645
     0.333867356  0.082638636  0.395546894
     0.833960455  0.082842506  0.395533463
     0.583889115  0.582808736  0.395729314
     0.083915615  0.582919927  0.395695869
     0.583997168  0.082842565  0.395593717
     0.083999283  0.082863802  0.395513495
     0.167301544  0.166158389  0.416544274
     0.667397125  0.166150380  0.416520739
     0.167287400  0.666201638  0.416637128
     0.667177090  0.666310746  0.416521022
     0.417186703  0.166007373  0.416344149
     0.917330203  0.166172196  0.416435798
     0.417135145  0.666258241  0.416499980
     0.917215097  0.666257022  0.416576796
     0.167257862  0.416271932  0.416654758
     0.666957749  0.416434450  0.417001113
     0.167248256  0.916266700  0.416563729
     0.667240928  0.916226487  0.416602156
     0.417211474  0.416192337  0.416422627
     0.917555646  0.416106210  0.416287883
     0.417266980  0.916072418  0.416614924
     0.917226271  0.916264899  0.416575368
     0.167474276  0.166035093  0.479043267
     0.667500753  0.166085920  0.478973390
     0.167449986  0.666068829  0.479128578
     0.667170577  0.666301410  0.478972390
     0.417352385  0.165999496  0.478732282
     0.917364809  0.166132309  0.478883673
     0.417277913  0.665735887  0.478939481
     0.917306974  0.666175675  0.479058789
     0.167637560  0.416171348  0.479156194
     0.667024033  0.416335513  0.479602431
     0.167315529  0.916185115  0.479047889
     0.667324154  0.916197234  0.479093157
     0.417874084  0.416462207  0.478774718
     0.918232384  0.415805682  0.478639551
     0.417563944  0.915710234  0.479120571
     0.917319346  0.916204157  0.479057018
     0.000644324  0.999604412  0.499476783
     0.500580348  0.999550731  0.499457536
     0.000843027  0.499453671  0.499469831
     0.500444061  0.499817851  0.500406215
     0.250820319  0.999347029  0.499513517
     0.750668535  0.999540175  0.499542547
     0.251395303  0.499230667  0.499480399
     0.751864589  0.499341675  0.499007035
     0.000690272  0.249453632  0.499383749
     0.500591114  0.249423165  0.499042177
     0.000686909  0.749488449  0.499514862
     0.500635853  0.748915784  0.499600127
     0.250962868  0.249337672  0.499442640
     0.751047290  0.249028462  0.499623907
     0.250748638  0.749520233  0.499497757
     0.750610090  0.749445079  0.499509603

  ion indices of the primitive-cell ions
   primitive index   ion index
                 1           1
                 2           2
                 3           3
                 4           4
                 5           5
                 6           6
                 7           7
                 8           8
                 9           9
                10          10
                11          11
                12          12
                13          13
                14          14
                15          15
                16          16
                17          17
                18          18
                19          19
                20          20
                21          21
                22          22
                23          23
                24          24
                25          25
                26          26
                27          27
                28          28
                29          29
                30          30
                31          31
                32          32
                33          33
                34          34
                35          35
                36          36
                37          37
                38          38
                39          39
                40          40
                41          41
                42          42
                43          43
                44          44
                45          45
                46          46
                47          47
                48          48
                49          49
                50          50
                51          51
                52          52
                53          53
                54          54
                55          55
                56          56
                57          57
                58          58
                59          59
                60          60
                61          61
                62          62
                63          63
                64          64
                65          65
                66          66
                67          67
                68          68
                69          69
                70          70
                71          71
                72          72
                73          73
                74          74
                75          75
                76          76
                77          77
                78          78
                79          79
                80          80
                81          81
                82          82
                83          83
                84          84
                85          85
                86          86
                87          87
                88          88
                89          89
                90          90
                91          91
                92          92
                93          93
                94          94
                95          95
                96          96
                97          97
                98          98
                99          99
               100         100
               101         101
               102         102
               103         103
               104         104
               105         105
               106         106
               107         107
               108         108
               109         109
               110         110
               111         111
               112         112
               113         113
               114         114
               115         115
               116         116
               117         117
               118         118
               119         119
               120         120
               121         121
               122         122
               123         123
               124         124
               125         125
               126         126
               127         127
               128         128
               129         129
               130         130
               131         131
               132         132
               133         133
               134         134
               135         135
               136         136
               137         137
               138         138
               139         139
               140         140
               141         141
               142         142
               143         143
               144         144
               145         145
               146         146
               147         147
               148         148
               149         149
               150         150
               151         151
               152         152
               153         153
               154         154
               155         155
               156         156
               157         157
               158         158
               159         159
               160         160
               161         161
               162         162
               163         163
               164         164
               165         165
               166         166
               167         167
               168         168
               169         169
               170         170
               171         171
               172         172
               173         173
               174         174
               175         175
               176         176
               177         177
               178         178
               179         179
               180         180
               181         181
               182         182
               183         183
               184         184
               185         185
               186         186
               187         187
               188         188
               189         189
               190         190
               191         191
               192         192
               193         193
               194         194
               195         195
               196         196
               197         197
               198         198
               199         199
               200         200
               201         201
               202         202
               203         203
               204         204
               205         205
               206         206
               207         207
               208         208
               209         209
               210         210
               211         211
               212         212
               213         213
               214         214
               215         215
               216         216
               217         217
               218         218
               219         219
               220         220
               221         221
               222         222
               223         223
               224         224
               225         225
               226         226
               227         227
               228         228
               229         229
               230         230
               231         231
               232         232
               233         233
               234         234
               235         235
               236         236
               237         237
               238         238
               239         239
               240         240
               241         241
               242         242
               243         243
               244         244
               245         245
               246         246
               247         247
               248         248
               249         249
               250         250

----------------------------------------------------------------------------------------

 
 
 KPOINTS: auto                                    

Automatic generation of k-mesh.
 Grid dimensions read from file:
 generate k-points for:    7    7    1

 Generating k-lattice:

  Cartesian coordinates                     Fractional coordinates (reciprocal lattice)
     0.009316980 -0.005379161  0.000000000     0.142857143  0.000000000  0.000000000
     0.000000000  0.010758322  0.000000000     0.000000000  0.142857143  0.000000000
     0.000000000  0.000000000  0.026625490     0.000000000  0.000000000  1.000000000

  Length of vectors
     0.010758322  0.010758322  0.026625490

  Shift w.r.t. Gamma in fractional coordinates (k-lattice)
     0.000000000  0.000000000  0.000000000

 TETIRR: Found    144 inequivalent tetrahedra from      294
 
 Subroutine IBZKPT returns following result:
 ===========================================
 
 Found     25 irreducible k-points:
 
 Following reciprocal coordinates:
            Coordinates               Weight
  0.000000  0.000000  0.000000      1.000000
  0.142857 -0.000000  0.000000      2.000000
  0.142857  0.142857  0.000000      2.000000
  0.000000  0.142857  0.000000      2.000000
  0.285714  0.000000  0.000000      2.000000
  0.285714  0.285714  0.000000      2.000000
  0.000000  0.285714  0.000000      2.000000
  0.428571 -0.000000  0.000000      2.000000
  0.428571  0.428571  0.000000      2.000000
  0.000000  0.428571  0.000000      2.000000
  0.285714  0.142857  0.000000      2.000000
  0.142857  0.285714  0.000000      2.000000
 -0.142857  0.142857  0.000000      2.000000
  0.428571  0.142857  0.000000      2.000000
  0.285714  0.428571  0.000000      2.000000
 -0.142857  0.285714  0.000000      2.000000
  0.285714 -0.142857  0.000000      2.000000
 -0.142857 -0.428571  0.000000      2.000000
 -0.428571 -0.285714  0.000000      2.000000
 -0.428571  0.142857  0.000000      2.000000
  0.428571 -0.428571  0.000000      2.000000
 -0.142857  0.428571  0.000000      2.000000
 -0.428571  0.285714  0.000000      2.000000
  0.285714 -0.428571  0.000000      2.000000
 -0.285714  0.285714  0.000000      2.000000
 
 Following cartesian coordinates:
            Coordinates               Weight
  0.000000  0.000000  0.000000      1.000000
  0.009317 -0.005379  0.000000      2.000000
  0.009317  0.005379  0.000000      2.000000
  0.000000  0.010758  0.000000      2.000000
  0.018634 -0.010758  0.000000      2.000000
  0.018634  0.010758  0.000000      2.000000
  0.000000  0.021517  0.000000      2.000000
  0.027951 -0.016137  0.000000      2.000000
  0.027951  0.016137  0.000000      2.000000
  0.000000  0.032275  0.000000      2.000000
  0.018634 -0.000000  0.000000      2.000000
  0.009317  0.016137  0.000000      2.000000
 -0.009317  0.016137  0.000000      2.000000
  0.027951 -0.005379  0.000000      2.000000
  0.018634  0.021517  0.000000      2.000000
 -0.009317  0.026896  0.000000      2.000000
  0.018634 -0.021517  0.000000      2.000000
 -0.009317 -0.026896  0.000000      2.000000
 -0.027951 -0.005379  0.000000      2.000000
 -0.027951  0.026896  0.000000      2.000000
  0.027951 -0.048412  0.000000      2.000000
 -0.009317  0.037654  0.000000      2.000000
 -0.027951  0.037654  0.000000      2.000000
  0.018634 -0.043033  0.000000      2.000000
 -0.018634  0.032275  0.000000      2.000000
 


--------------------------------------------------------------------------------------------------------




 Dimension of arrays:
   k-points           NKPTS =     25   k-points in BZ     NKDIM =     25   number of bands    NBANDS=    640
   number of dos      NEDOS =   4001   number of ions     NIONS =    250
   non local maximal  LDIM  =      6   non local SUM 2l+1 LMDIM =     18
   total plane-waves  NPLWV = ******
   max r-space proj   IRMAX =      1   max aug-charges    IRDMAX=  26818
   dimension x,y,z NGX =   120 NGY =  120 NGZ =  288
   dimension x,y,z NGXF=   240 NGYF=  240 NGZF=  576
   support grid    NGXF=   240 NGYF=  240 NGZF=  576
   ions per type =              16  42 192
   NGX,Y,Z   is equivalent  to a cutoff of  13.01, 13.01, 12.75 a.u.
   NGXF,Y,Z  is equivalent  to a cutoff of  26.02, 26.02, 25.50 a.u.

 SYSTEM =  Si_surface_6layer                       
 POSCAR =  4x4_si_surface_from540eV_1x1x1conv      

 Startparameter for this run:
   NWRITE =      2    write-flag & timer
   PREC   = accura    normal or accurate (medium, high low for compatibility)
   ISTART =      1    job   : 0-new  1-cont  2-samecut
   ICHARG =     11    charge: 1-file 2-atom 10-const
   ISPIN  =      2    spin polarized calculation?
   LNONCOLLINEAR =      F non collinear calculations
   LSORBIT =      F    spin-orbit coupling
   INIWAV =      1    electr: 0-lowe 1-rand  2-diag
   LASPH  =      F    aspherical Exc in radial PAW
 Electronic Relaxation 1
   ENCUT  =  540.0 eV  39.69 Ry    6.30 a.u.  29.05 29.05 71.16*2*pi/ulx,y,z
   ENINI  =  540.0     initial cutoff
   ENAUG  =  644.9 eV  augmentation charge cutoff
   NELM   =     60;   NELMIN=  5; NELMDL=  0     # of ELM steps 
   EDIFF  = 0.1E-06   stopping-criterion for ELM
   LREAL  =      F    real-space projection
   NLSPLINE    = F    spline interpolate recip. space projectors
   LCOMPAT=      F    compatible to vasp.4.4
   GGA_COMPAT  = T    GGA compatible to vasp.4.4-vasp.4.6
   LMAXPAW     = -100 max onsite density
   LMAXMIX     =    2 max onsite mixed and CHGCAR
   VOSKOWN=      0    Vosko Wilk Nusair interpolation
   ROPT   =    0.00000   0.00000   0.00000
 Ionic relaxation
   EDIFFG = -.9E-02   stopping-criterion for IOM
   NSW    =      0    number of steps for IOM
   NBLOCK =      1;   KBLOCK =      1    inner block; outer block 
   IBRION =     -1    ionic relax: 0-MD 1-quasi-New 2-CG
   NFREE  =      0    steps in history (QN), initial steepest desc. (CG)
   ISIF   =      2    stress and relaxation
   IWAVPR =     10    prediction:  0-non 1-charg 2-wave 3-comb
   ISYM   =      0    0-nonsym 1-usesym 2-fastsym
   LCORR  =      T    Harris-Foulkes like correction to forces

   POTIM  = 0.5000    time-step for ionic-motion
   TEIN   =    0.0    initial temperature
   TEBEG  =    0.0;   TEEND  =   0.0 temperature during run
   SMASS  =  -3.00    Nose mass-parameter (am)
   estimated Nose-frequenzy (Omega)   =  0.10E-29 period in steps = 0.13E+47 mass=  -0.537E-26a.u.
   SCALEE = 1.0000    scale energy and forces
   NPACO  =    256;   APACO  = 10.0  distance and # of slots for P.C.
   PSTRESS=    0.0 pullay stress

  Mass of Ions in am
   POMASS =  12.01  1.00 28.09
  Ionic Valenz
   ZVAL   =   4.00  1.00  4.00
  Atomic Wigner-Seitz radii
   RWIGS  =  -1.00 -1.00 -1.00
  virtual crystal weights 
   VCA    =   1.00  1.00  1.00
   NELECT =     874.0000    total number of electrons
   NUPDOWN=       2.0000    fix difference up-down

 DOS related values:
   EMIN   =  -5.00;   EMAX   =  3.00  energy-range for DOS
   EFERMI =   0.00
   ISMEAR =    -5;   SIGMA  =   0.01  broadening in eV -4-tet -1-fermi 0-gaus

 Electronic relaxation 2 (details)
   IALGO  =     38    algorithm
   LDIAG  =      T    sub-space diagonalisation (order eigenvalues)
   LSUBROT=      F    optimize rotation matrix (better conditioning)
   TURBO    =      0    0=normal 1=particle mesh
   IRESTART =      0    0=no restart 2=restart with 2 vectors
   NREBOOT  =      0    no. of reboots
   NMIN     =      0    reboot dimension
   EREF     =   0.00    reference energy to select bands
   IMIX   =      4    mixing-type and parameters
     AMIX     =   0.40;   BMIX     =  1.00
     AMIX_MAG =   1.60;   BMIX_MAG =  1.00
     AMIN     =   0.10
     WC   =   100.;   INIMIX=   1;  MIXPRE=   1;  MAXMIX= -45

 Intra band minimization:
   WEIMIN = 0.0000     energy-eigenvalue tresh-hold
   EBREAK =  0.39E-10  absolut break condition
   DEPER  =   0.30     relativ break condition  

   TIME   =   0.40     timestep for ELM

  volume/ion in A,a.u.               =      30.59       206.42
  Fermi-wavevector in a.u.,A,eV,Ry     =   0.794480  1.501350  8.587982  0.631199
  Thomas-Fermi vector in A             =   1.900621
 
 Write flags
   LWAVE        =      F    write WAVECAR
   LDOWNSAMPLE  =      F    k-point downsampling of WAVECAR
   LCHARG       =      F    write CHGCAR
   LVTOT        =      F    write LOCPOT, total local potential
   LVHAR        =      F    write LOCPOT, Hartree potential only
   LELF         =      F    write electronic localiz. function (ELF)
   LORBIT       =     11    0 simple, 1 ext, 2 COOP (PROOUT), +10 PAW based schemes


 Dipole corrections
   LMONO  =      F    monopole corrections only (constant potential shift)
   LDIPOL =      F    correct potential (dipole corrections)
   IDIPOL =      3    1-x, 2-y, 3-z, 4-all directions 
   EPSILON=  1.0000000 bulk dielectric constant

 Exchange correlation treatment:
   GGA     =    --    GGA type
   LEXCH   =     8    internal setting for exchange type
   LIBXC   =     F    Libxc                    
   VOSKOWN =     0    Vosko Wilk Nusair interpolation
   LHFCALC =     F    Hartree Fock is set to
   LHFONE  =     F    Hartree Fock one center treatment
   AEXX    =    0.0000 exact exchange contribution

 Linear response parameters
   LEPSILON=     F    determine dielectric tensor
   LRPA    =     F    only Hartree local field effects (RPA)
   LNABLA  =     F    use nabla operator in PAW spheres
   LVEL    =     F    velocity operator in full k-point grid
   CSHIFT  =0.1000    complex shift for real part using Kramers Kronig
   OMEGAMAX=  -1.0    maximum frequency
   DEG_THRESHOLD= 0.2000000E-02 threshold for treating states as degnerate
   RTIME   =   -0.100 relaxation time in fs
  (WPLASMAI=    0.000 imaginary part of plasma frequency in eV, 0.658/RTIME)
   DFIELD  = 0.0000000 0.0000000 0.0000000 field for delta impulse in time
 
  Optional k-point grid parameters
   LKPOINTS_OPT  =     F    use optional k-point grid
   KPOINTS_OPT_MODE=     1    mode for optional k-point grid
 
 Orbital magnetization related:
   ORBITALMAG=     F  switch on orbital magnetization
   LCHIMAG   =     F  perturbation theory with respect to B field
   DQ        =  0.001000  dq finite difference perturbation B field
   LLRAUG    =     F  two centre corrections for induced B field



--------------------------------------------------------------------------------------------------------


 Static calculation
 charge density and potential remain constant during run
 spin polarized calculation
 Variant of blocked Davidson
 Davidson routine will perform the subspace rotation
 perform sub-space diagonalisation
    after iterative eigenvector-optimisation
 no mixing
 using additional bands          203
 reciprocal scheme for non local part
 use partial core corrections
 calculate Harris-corrections to forces 
   (improved forces if not selfconsistent)
 use gradient corrections 
 WARNING: stress and forces are not correct
  (second derivative of E(xc) not defined)
 use of overlap-Matrix (Vanderbilt PP)
 Fermi weights with tetrahedron method with Bloechl corrections


--------------------------------------------------------------------------------------------------------


  energy-cutoff  :      540.00
  volume of cell :     7646.92
      direct lattice vectors                 reciprocal lattice vectors
    15.332987785  0.000000000  0.000000000     0.065218861 -0.037654127  0.000000000
     7.666493893 13.278756938  0.000000000     0.000000000  0.075308254  0.000000000
     0.000000000  0.000000000 37.557994843     0.000000000  0.000000000  0.026625490

  length of vectors
    15.332987785 15.332987785 37.557994843     0.075308254  0.075308254  0.026625490


 
 old parameters found on file WAVECAR:
  energy-cutoff  :      540.00
  volume of cell :     7646.92
      direct lattice vectors                 reciprocal lattice vectors
    15.332987785  0.000000000  0.000000000     0.065218861 -0.037654127  0.000000000
     7.666493893 13.278756938  0.000000000     0.000000000  0.075308254  0.000000000
     0.000000000  0.000000000 37.557994843     0.000000000  0.000000000  0.026625490

  length of vectors

 
 k-points in units of 2pi/SCALE and weight: auto                                    
   0.00000000  0.00000000  0.00000000       0.020
   0.00931698 -0.00537916  0.00000000       0.041
   0.00931698  0.00537916  0.00000000       0.041
   0.00000000  0.01075832  0.00000000       0.041
   0.01863396 -0.01075832  0.00000000       0.041
   0.01863396  0.01075832  0.00000000       0.041
   0.00000000  0.02151664  0.00000000       0.041
   0.02795094 -0.01613748  0.00000000       0.041
   0.02795094  0.01613748  0.00000000       0.041
   0.00000000  0.03227497  0.00000000       0.041
   0.01863396 -0.00000000  0.00000000       0.041
   0.00931698  0.01613748  0.00000000       0.041
  -0.00931698  0.01613748  0.00000000       0.041
   0.02795094 -0.00537916  0.00000000       0.041
   0.01863396  0.02151664  0.00000000       0.041
  -0.00931698  0.02689580  0.00000000       0.041
   0.01863396 -0.02151664  0.00000000       0.041
  -0.00931698 -0.02689580  0.00000000       0.041
  -0.02795094 -0.00537916  0.00000000       0.041
  -0.02795094  0.02689580  0.00000000       0.041
   0.02795094 -0.04841245  0.00000000       0.041
  -0.00931698  0.03765413  0.00000000       0.041
  -0.02795094  0.03765413  0.00000000       0.041
   0.01863396 -0.04303329  0.00000000       0.041
  -0.01863396  0.03227497  0.00000000       0.041
 
 k-points in reciprocal lattice and weights: auto                                    
   0.00000000  0.00000000  0.00000000       0.020
   0.14285714 -0.00000000  0.00000000       0.041
   0.14285714  0.14285714  0.00000000       0.041
   0.00000000  0.14285714  0.00000000       0.041
   0.28571429  0.00000000  0.00000000       0.041
   0.28571429  0.28571429  0.00000000       0.041
   0.00000000  0.28571429  0.00000000       0.041
   0.42857143 -0.00000000  0.00000000       0.041
   0.42857143  0.42857143  0.00000000       0.041
   0.00000000  0.42857143  0.00000000       0.041
   0.28571429  0.14285714  0.00000000       0.041
   0.14285714  0.28571429  0.00000000       0.041
  -0.14285714  0.14285714  0.00000000       0.041
   0.42857143  0.14285714  0.00000000       0.041
   0.28571429  0.42857143  0.00000000       0.041
  -0.14285714  0.28571429  0.00000000       0.041
   0.28571429 -0.14285714  0.00000000       0.041
  -0.14285714 -0.42857143  0.00000000       0.041
  -0.42857143 -0.28571429  0.00000000       0.041
  -0.42857143  0.14285714  0.00000000       0.041
   0.42857143 -0.42857143  0.00000000       0.041
  -0.14285714  0.42857143  0.00000000       0.041
  -0.42857143  0.28571429  0.00000000       0.041
   0.28571429 -0.42857143  0.00000000       0.041
  -0.28571429  0.28571429  0.00000000       0.041
 
 position of ions in fractional coordinates (direct lattice) 
   0.57808663  0.44452641  0.61020349
   0.52992340  0.39610636  0.62653491
   0.63426080  0.47602950  0.63124503
   0.53733048  0.38117851  0.66471615
   0.64221486  0.45914585  0.66920928
   0.57614887  0.45803516  0.57142979
   0.59298274  0.41289223  0.68492611
   0.47756202  0.35667890  0.60694289
   0.68213711  0.52686408  0.61628292
   0.48887937  0.33257682  0.68106336
   0.69951437  0.49077153  0.68985711
   0.49463275  0.49717830  0.54999157
   0.43289690  0.30927773  0.62358922
   0.73708075  0.55591149  0.63699798
   0.43737698  0.29798139  0.66118786
   0.74638148  0.53734931  0.67423729
   0.59845489  0.40082978  0.71370623
   0.47453954  0.36303238  0.57808371
   0.67393594  0.54396155  0.58790482
   0.49465924  0.32279369  0.70992467
   0.70504603  0.47716655  0.71852124
   0.64997778  0.43299754  0.55925744
   0.42012140  0.52623081  0.56211567
   0.39442039  0.27912970  0.60768962
   0.77324901  0.59429659  0.62479279
   0.40108370  0.26063376  0.67404084
   0.79009578  0.56099735  0.69033537
   0.00025805  0.99986120  0.02277680
   0.50017127  0.99988812  0.02277710
   0.00027288  0.49982035  0.02276350
   0.50027724  0.49979994  0.02277048
   0.25030826  0.99985916  0.02278581
   0.75032353  0.99982928  0.02276982
   0.25030901  0.49979955  0.02277018
   0.75030608  0.49978107  0.02277275
   0.00028242  0.24977028  0.02277106
   0.50028434  0.24981388  0.02276647
   0.00029709  0.74976565  0.02275623
   0.50028638  0.74976507  0.02275634
   0.25035132  0.24970940  0.02277840
   0.75031511  0.24977460  0.02277715
   0.25033268  0.74975233  0.02276322
   0.75034884  0.74974874  0.02275501
   0.00046890  0.99988368  0.53952482
   0.50027123  0.00021826  0.53951119
   0.00016556  0.49930739  0.53952718
   0.25058126  0.99955217  0.53956411
   0.75051059  0.99977446  0.53958828
   0.25175482  0.49902528  0.53955981
   0.75510109  0.49942560  0.53900680
   0.00007332  0.25013196  0.53943331
   0.50067299  0.24727972  0.53902983
   0.00048268  0.74959281  0.53956881
   0.50100399  0.74871818  0.53964596
   0.25154752  0.24906216  0.53951496
   0.75271712  0.24667365  0.53964459
   0.25078139  0.74947565  0.53955395
   0.75051260  0.74922935  0.53957688
   0.00028839  0.99981158  0.06283023
   0.50026301  0.99982030  0.06283063
   0.00028848  0.49980241  0.06281697
   0.50028881  0.49979800  0.06282419
   0.25029751  0.99981102  0.06283920
   0.75030312  0.99980345  0.06282331
   0.25029597  0.49979680  0.06282368
   0.75029624  0.49979285  0.06282650
   0.00029181  0.24978957  0.06282452
   0.50029078  0.24980097  0.06282004
   0.00029595  0.74978823  0.06280951
   0.50029243  0.74979010  0.06280973
   0.25030514  0.24977681  0.06283187
   0.75029865  0.24979172  0.06283084
   0.25030272  0.74978721  0.06281653
   0.75030832  0.74978646  0.06280843
   0.83364017  0.83312176  0.08326900
   0.33364121  0.83311901  0.08327419
   0.83363706  0.33312519  0.08328595
   0.33363442  0.33312676  0.08327972
   0.08363563  0.83311881  0.08326447
   0.58364269  0.83311950  0.08325618
   0.08362944  0.33313163  0.08327035
   0.58363160  0.33312748  0.08327927
   0.83363507  0.08313009  0.08329589
   0.33362694  0.08313366  0.08331760
   0.83363467  0.58312898  0.08328029
   0.33363344  0.58312667  0.08328547
   0.08363541  0.08313156  0.08329318
   0.58363773  0.08313013  0.08327417
   0.08363248  0.58312717  0.08327594
   0.58363031  0.58313029  0.08327720
   0.83363888  0.83311932  0.14573936
   0.33364142  0.83311333  0.14574413
   0.83363577  0.33312511  0.14575652
   0.33363304  0.33312618  0.14574985
   0.08363805  0.83311147  0.14573350
   0.58365220  0.83311104  0.14572461
   0.08362326  0.33313925  0.14573938
   0.58362930  0.33312540  0.14574936
   0.83363545  0.08312695  0.14576798
   0.33362205  0.08313661  0.14579150
   0.83363341  0.58312784  0.14575187
   0.33363386  0.58312238  0.14575708
   0.08363800  0.08312681  0.14576450
   0.58364194  0.08312284  0.14574375
   0.08363393  0.58312177  0.14574676
   0.58362852  0.58312727  0.14574775
   0.66696735  0.66646182  0.16666237
   0.16696625  0.66645610  0.16666765
   0.66695895  0.16646432  0.16667507
   0.16692334  0.16651226  0.16669062
   0.91697741  0.66645878  0.16666757
   0.41697696  0.66645291  0.16667347
   0.91697906  0.16646276  0.16668430
   0.41700336  0.16646809  0.16667859
   0.66697705  0.91644381  0.16665251
   0.16697957  0.91642669  0.16665900
   0.66696706  0.41645874  0.16666580
   0.16696990  0.41645253  0.16666560
   0.91699241  0.91642943  0.16666278
   0.41702301  0.91640546  0.16666071
   0.91697983  0.41645827  0.16666984
   0.41697576  0.41644792  0.16667253
   0.66691256  0.66650248  0.22910567
   0.16691388  0.66649014  0.22911116
   0.66690344  0.16650572  0.22911891
   0.16684061  0.16660814  0.22913641
   0.91692531  0.66649854  0.22911139
   0.41692519  0.66647869  0.22911823
   0.91692513  0.16650243  0.22912858
   0.41696414  0.16651435  0.22912054
   0.66691798  0.91648233  0.22909294
   0.16694951  0.91644073  0.22909717
   0.66691595  0.41648963  0.22910631
   0.16692059  0.41647589  0.22910756
   0.91694874  0.91646326  0.22910388
   0.41701031  0.91640425  0.22909924
   0.91693836  0.41649175  0.22911313
   0.41692036  0.41647944  0.22911610
   0.50027961  0.49979386  0.24993752
   0.00028667  0.49982324  0.24993795
   0.50028664  0.99980050  0.24990925
   0.00032078  0.99976605  0.24991573
   0.75028151  0.49981755  0.24990806
   0.25025454  0.49979892  0.24992332
   0.75028825  0.99977207  0.24989639
   0.25032210  0.99981099  0.24982481
   0.50031888  0.74973106  0.24997386
   0.00028389  0.74979836  0.24995008
   0.50029421  0.24984773  0.24999534
   0.00016690  0.24989246  0.25001305
   0.75026935  0.74982309  0.24992180
   0.25028658  0.74977243  0.24995138
   0.75025457  0.24982803  0.24994539
   0.25034884  0.24982284  0.24995646
   0.50049311  0.49963021  0.31237242
   0.00050731  0.49968964  0.31237492
   0.50051337  0.99962586  0.31233191
   0.00059072  0.99956340  0.31234083
   0.75046229  0.49970725  0.31232905
   0.25044429  0.49965557  0.31234959
   0.75051129  0.99957675  0.31231138
   0.25060219  0.99960679  0.31220251
   0.50056702  0.74950278  0.31242687
   0.00050130  0.74963838  0.31239143
   0.50053847  0.24974354  0.31245676
   0.00022542  0.24985044  0.31247935
   0.75046211  0.74969256  0.31235114
   0.25051790  0.74957991  0.31239271
   0.75041085  0.24970731  0.31238395
   0.25066370  0.24970363  0.31239706
   0.33391163  0.33313787  0.33331034
   0.83340478  0.33325410  0.33332062
   0.33380580  0.83306384  0.33312255
   0.83384037  0.83295310  0.33320504
   0.58387220  0.33310598  0.33332342
   0.08398665  0.33295631  0.33315369
   0.58382905  0.83298177  0.33318987
   0.08388577  0.83291119  0.33323073
   0.33384538  0.58284026  0.33320066
   0.83381855  0.58302647  0.33316427
   0.33384517  0.08289958  0.33310792
   0.83388197  0.08288339  0.33308220
   0.58398402  0.58273447  0.33326277
   0.08386202  0.58297580  0.33324507
   0.58390039  0.08290785  0.33314908
   0.08406826  0.08289581  0.33303529
   0.33381875  0.33287868  0.39567340
   0.83350281  0.33310258  0.39577482
   0.33385052  0.83292873  0.39557704
   0.83387350  0.83293897  0.39565513
   0.58401378  0.33296474  0.39575677
   0.08422788  0.33277720  0.39555718
   0.58385505  0.83297881  0.39562811
   0.08391258  0.83287958  0.39568168
   0.33383610  0.58289794  0.39561038
   0.83386074  0.58298701  0.39559964
   0.33386736  0.08263864  0.39554689
   0.83396046  0.08284251  0.39553346
   0.58388912  0.58280874  0.39572931
   0.08391561  0.58291993  0.39569587
   0.58399717  0.08284256  0.39559372
   0.08399928  0.08286380  0.39551350
   0.16730154  0.16615839  0.41654427
   0.66739712  0.16615038  0.41652074
   0.16728740  0.66620164  0.41663713
   0.66717709  0.66631075  0.41652102
   0.41718670  0.16600737  0.41634415
   0.91733020  0.16617220  0.41643580
   0.41713514  0.66625824  0.41649998
   0.91721510  0.66625702  0.41657680
   0.16725786  0.41627193  0.41665476
   0.66695775  0.41643445  0.41700111
   0.16724826  0.91626670  0.41656373
   0.66724093  0.91622649  0.41660216
   0.41721147  0.41619234  0.41642263
   0.91755565  0.41610621  0.41628788
   0.41726698  0.91607242  0.41661492
   0.91722627  0.91626490  0.41657537
   0.16747428  0.16603509  0.47904327
   0.66750075  0.16608592  0.47897339
   0.16744999  0.66606883  0.47912858
   0.66717058  0.66630141  0.47897239
   0.41735238  0.16599950  0.47873228
   0.91736481  0.16613231  0.47888367
   0.41727791  0.66573589  0.47893948
   0.91730697  0.66617568  0.47905879
   0.16763756  0.41617135  0.47915619
   0.66702403  0.41633551  0.47960243
   0.16731553  0.91618511  0.47904789
   0.66732415  0.91619723  0.47909316
   0.41787408  0.41646221  0.47877472
   0.91823238  0.41580568  0.47863955
   0.41756394  0.91571023  0.47912057
   0.91731935  0.91620416  0.47905702
   0.00064432  0.99960441  0.49947678
   0.50058035  0.99955073  0.49945754
   0.00084303  0.49945367  0.49946983
   0.50044406  0.49981785  0.50040621
   0.25082032  0.99934703  0.49951352
   0.75066854  0.99954018  0.49954255
   0.25139530  0.49923067  0.49948040
   0.75186459  0.49934168  0.49900704
   0.00069027  0.24945363  0.49938375
   0.50059111  0.24942317  0.49904218
   0.00068691  0.74948845  0.49951486
   0.50063585  0.74891578  0.49960013
   0.25096287  0.24933767  0.49944264
   0.75104729  0.24902846  0.49962391
   0.25074864  0.74952023  0.49949776
   0.75061009  0.74944508  0.49950960
 
 position of ions in cartesian coordinates  (Angst):
  12.27175429  5.90275816 22.91801946
  11.16205607  5.25980008 23.53139509
  13.37459039  6.32108001 23.70829763
  11.16118436  5.06157683 24.96540561
  13.36711136  6.09688609 25.13415878
  12.34560725  6.08213749 21.46175708
  12.25763281  5.48269557 25.72445144
  10.05692921  4.73625244 22.79555785
  14.49840020  6.99610012 23.14635074
  10.04567960  4.41620674 25.57937431
  14.48814228  6.51683591 25.90964995
  11.39581229  6.60190983 20.65658061
   9.00867870  4.10682384 23.42076059
  15.56354224  7.38181361 23.92436668
   8.99076849  3.95682250 24.83289008
  15.56384340  7.13533090 25.32300064
  12.24906050  5.32252117 26.80537483
  10.05929442  4.82061870 21.71166482
  14.50372936  7.22313318 22.08052604
  10.05930005  4.28629901 26.66334716
  14.46865660  6.33617863 26.98621699
  13.28567428  5.74966909 21.00458811
  10.47606156  6.98769100 21.11193753
   8.18758916  3.70649540 22.82360371
  16.41238883  7.89151999 23.46596457
[...]
   72        0.728   0.951   0.071   1.751
   73        0.728   0.951   0.071   1.751
   74        0.728   0.951   0.071   1.751
   75        0.734   0.945   0.060   1.738
   76        0.734   0.945   0.060   1.738
   77        0.734   0.945   0.060   1.738
   78        0.734   0.945   0.060   1.738
   79        0.734   0.945   0.060   1.738
   80        0.734   0.945   0.060   1.738
   81        0.734   0.945   0.060   1.738
   82        0.734   0.945   0.060   1.738
   83        0.734   0.945   0.060   1.738
   84        0.734   0.944   0.060   1.738
   85        0.734   0.945   0.060   1.738
   86        0.734   0.945   0.060   1.738
   87        0.734   0.945   0.060   1.738
   88        0.734   0.945   0.060   1.738
   89        0.734   0.945   0.060   1.738
   90        0.734   0.945   0.060   1.738
   91        0.737   0.930   0.062   1.729
   92        0.737   0.930   0.062   1.729
   93        0.737   0.930   0.062   1.729
   94        0.737   0.930   0.062   1.729
   95        0.737   0.930   0.062   1.729
   96        0.737   0.930   0.062   1.729
   97        0.737   0.930   0.062   1.729
   98        0.737   0.930   0.062   1.729
   99        0.737   0.930   0.062   1.729
  100        0.737   0.930   0.062   1.729
  101        0.737   0.930   0.062   1.729
  102        0.737   0.930   0.062   1.729
  103        0.737   0.930   0.062   1.729
  104        0.737   0.930   0.062   1.729
  105        0.737   0.930   0.062   1.729
  106        0.737   0.930   0.062   1.729
  107        0.738   0.930   0.062   1.730
  108        0.738   0.930   0.062   1.730
  109        0.738   0.930   0.062   1.730
  110        0.738   0.930   0.062   1.730
  111        0.738   0.930   0.062   1.730
  112        0.738   0.930   0.062   1.730
  113        0.738   0.930   0.062   1.730
  114        0.738   0.930   0.062   1.730
  115        0.738   0.930   0.062   1.730
  116        0.738   0.930   0.062   1.730
  117        0.738   0.930   0.062   1.730
  118        0.738   0.930   0.062   1.730
  119        0.738   0.930   0.062   1.730
  120        0.738   0.930   0.062   1.730
  121        0.738   0.930   0.062   1.730
  122        0.738   0.930   0.062   1.730
  123        0.739   0.929   0.062   1.730
  124        0.739   0.929   0.062   1.730
  125        0.739   0.929   0.062   1.730
  126        0.739   0.929   0.062   1.730
  127        0.739   0.929   0.062   1.730
  128        0.739   0.929   0.062   1.730
  129        0.739   0.929   0.062   1.730
  130        0.739   0.929   0.062   1.730
  131        0.739   0.930   0.062   1.731
  132        0.739   0.929   0.062   1.730
  133        0.739   0.929   0.062   1.730
  134        0.739   0.929   0.062   1.730
  135        0.739   0.929   0.062   1.730
  136        0.739   0.929   0.062   1.730
  137        0.739   0.929   0.062   1.730
  138        0.739   0.929   0.062   1.730
  139        0.739   0.929   0.062   1.731
  140        0.739   0.929   0.062   1.731
  141        0.739   0.929   0.063   1.731
  142        0.739   0.929   0.062   1.731
  143        0.739   0.929   0.063   1.731
  144        0.739   0.929   0.062   1.731
  145        0.739   0.929   0.063   1.731
  146        0.739   0.930   0.063   1.731
  147        0.739   0.929   0.062   1.730
  148        0.739   0.929   0.062   1.730
  149        0.739   0.929   0.062   1.730
  150        0.739   0.929   0.062   1.730
  151        0.739   0.929   0.062   1.731
  152        0.739   0.929   0.062   1.730
  153        0.739   0.929   0.062   1.730
  154        0.739   0.929   0.062   1.730
  155        0.739   0.929   0.062   1.731
  156        0.739   0.929   0.062   1.730
  157        0.739   0.929   0.062   1.731
  158        0.739   0.929   0.062   1.731
  159        0.739   0.930   0.063   1.731
  160        0.739   0.929   0.063   1.731
  161        0.739   0.929   0.063   1.731
  162        0.739   0.930   0.063   1.732
  163        0.739   0.929   0.062   1.730
  164        0.739   0.929   0.062   1.730
  165        0.739   0.929   0.062   1.730
  166        0.739   0.928   0.062   1.729
  167        0.739   0.929   0.062   1.731
  168        0.739   0.929   0.062   1.730
  169        0.739   0.929   0.062   1.731
  170        0.739   0.929   0.062   1.730
  171        0.739   0.930   0.063   1.731
  172        0.739   0.929   0.062   1.730
  173        0.739   0.929   0.062   1.730
  174        0.739   0.929   0.062   1.730
  175        0.739   0.929   0.062   1.730
  176        0.739   0.930   0.063   1.731
  177        0.739   0.929   0.062   1.730
  178        0.739   0.929   0.062   1.730
  179        0.739   0.930   0.063   1.731
  180        0.739   0.929   0.062   1.730
  181        0.739   0.930   0.062   1.731
  182        0.739   0.929   0.062   1.730
  183        0.739   0.929   0.062   1.730
  184        0.739   0.929   0.062   1.730
  185        0.739   0.929   0.062   1.730
  186        0.739   0.929   0.062   1.730
  187        0.738   0.931   0.062   1.731
  188        0.738   0.929   0.062   1.729
  189        0.739   0.929   0.062   1.730
  190        0.738   0.929   0.062   1.730
  191        0.738   0.930   0.062   1.730
  192        0.738   0.930   0.062   1.731
  193        0.738   0.930   0.062   1.730
  194        0.738   0.929   0.062   1.730
  195        0.738   0.930   0.062   1.731
  196        0.738   0.930   0.062   1.730
  197        0.738   0.930   0.062   1.730
  198        0.738   0.930   0.062   1.730
  199        0.738   0.929   0.062   1.730
  200        0.738   0.929   0.062   1.730
  201        0.738   0.929   0.062   1.730
  202        0.738   0.929   0.062   1.729
  203        0.737   0.930   0.062   1.729
  204        0.737   0.930   0.062   1.729
  205        0.737   0.930   0.062   1.729
  206        0.737   0.930   0.062   1.729
  207        0.737   0.931   0.062   1.730
  208        0.737   0.930   0.062   1.729
  209        0.737   0.930   0.062   1.729
  210        0.737   0.930   0.062   1.729
  211        0.737   0.930   0.062   1.729
  212        0.737   0.927   0.062   1.726
  213        0.737   0.930   0.062   1.729
  214        0.737   0.930   0.062   1.729
  215        0.737   0.931   0.062   1.731
  216        0.737   0.932   0.062   1.731
  217        0.737   0.930   0.062   1.728
  218        0.737   0.930   0.062   1.729
  219        0.734   0.944   0.060   1.737
  220        0.734   0.945   0.060   1.738
  221        0.734   0.944   0.060   1.738
  222        0.734   0.945   0.060   1.738
  223        0.734   0.946   0.060   1.739
  224        0.734   0.945   0.060   1.738
  225        0.736   0.944   0.059   1.739
  226        0.734   0.944   0.060   1.738
  227        0.734   0.944   0.060   1.737
  228        0.734   0.945   0.059   1.737
  229        0.734   0.944   0.060   1.738
  230        0.734   0.944   0.060   1.738
  231        0.736   0.945   0.059   1.740
  232        0.734   0.947   0.060   1.741
  233        0.734   0.943   0.060   1.737
  234        0.734   0.944   0.060   1.738
  235        0.728   0.951   0.071   1.751
  236        0.728   0.951   0.071   1.751
  237        0.728   0.951   0.071   1.751
  238        0.725   0.949   0.093   1.767
  239        0.728   0.951   0.071   1.751
  240        0.728   0.951   0.071   1.751
  241        0.728   0.951   0.071   1.751
  242        0.729   0.953   0.072   1.754
  243        0.728   0.951   0.071   1.751
  244        0.729   0.953   0.072   1.753
  245        0.728   0.951   0.071   1.751
  246        0.728   0.951   0.071   1.750
  247        0.728   0.951   0.071   1.751
  248        0.728   0.951   0.072   1.751
  249        0.728   0.952   0.072   1.751
  250        0.728   0.951   0.071   1.751
--------------------------------------------------
tot        179.256 208.104  12.193 399.552



 magnetization (x)

# of ion       s       p       d       tot
------------------------------------------
    1        0.000   0.000   0.000   0.000
    2        0.000   0.000   0.000   0.000
    3        0.000   0.000   0.000   0.000
    4       -0.000  -0.000   0.000  -0.000
    5       -0.000  -0.000   0.000  -0.000
    6        0.000   0.000   0.000   0.001
    7        0.000   0.000   0.000   0.001
    8        0.000   0.000   0.000   0.000
    9        0.000   0.000   0.000   0.000
   10        0.000   0.000   0.000   0.000
   11        0.000   0.000   0.000   0.000
   12        0.000  -0.000   0.000  -0.000
   13        0.000   0.000   0.000   0.000
   14        0.000   0.000   0.000   0.000
   15       -0.000  -0.000   0.000  -0.000
   16       -0.000  -0.000   0.000  -0.000
   17       -0.000   0.000   0.000  -0.000
   18       -0.000   0.000   0.000   0.000
   19       -0.000   0.000   0.000   0.000
   20       -0.000   0.000  -0.000  -0.000
   21       -0.000   0.000  -0.000  -0.000
   22       -0.000   0.000   0.000   0.000
   23        0.000  -0.000   0.000   0.000
   24       -0.000   0.000   0.000  -0.000
   25       -0.000   0.000  -0.000  -0.000
   26        0.000  -0.000  -0.000   0.000
   27        0.000  -0.000  -0.000   0.000
   28       -0.000   0.000  -0.000  -0.000
   29       -0.000   0.000  -0.000  -0.000
   30       -0.000   0.000  -0.000  -0.000
   31       -0.000   0.000  -0.000  -0.000
   32       -0.000   0.000  -0.000   0.000
   33       -0.000   0.000  -0.000  -0.000
   34       -0.000   0.000  -0.000  -0.000
   35       -0.000   0.000  -0.000   0.000
   36       -0.000   0.000  -0.000   0.000
   37       -0.000   0.000  -0.000   0.000
   38       -0.000   0.000  -0.000   0.000
   39       -0.000   0.000  -0.000   0.000
   40       -0.000   0.000  -0.000   0.000
   41       -0.000   0.000  -0.000  -0.000
   42       -0.000   0.000  -0.000   0.000
   43       -0.000   0.000  -0.000   0.000
   44       -0.000   0.000  -0.000   0.000
   45       -0.000   0.000  -0.000  -0.000
   46       -0.000   0.000  -0.000   0.000
   47       -0.000   0.000  -0.000  -0.000
   48       -0.000   0.000  -0.000  -0.000
   49       -0.000   0.000  -0.000  -0.000
   50       -0.000   0.000  -0.000  -0.000
   51       -0.000   0.000  -0.000  -0.000
   52       -0.000   0.000  -0.000  -0.000
   53       -0.000   0.000  -0.000  -0.000
   54       -0.000   0.000  -0.000  -0.000
   55       -0.000   0.000  -0.000  -0.000
   56       -0.000   0.000  -0.000  -0.000
   57       -0.000   0.000  -0.000  -0.000
   58       -0.000   0.000  -0.000   0.000
   59        0.000   0.002   0.000   0.002
   60        0.000   0.002   0.000   0.002
   61        0.000   0.002   0.000   0.002
   62        0.000   0.002   0.000   0.002
   63        0.000   0.002   0.000   0.002
   64        0.000   0.002   0.000   0.002
   65        0.000   0.002   0.000   0.002
   66        0.000   0.002   0.000   0.002
   67        0.000   0.002   0.000   0.002
   68        0.000   0.002   0.000   0.002
   69        0.000   0.002   0.000   0.002
   70        0.000   0.002   0.000   0.002
   71        0.000   0.002   0.000   0.002
   72        0.000   0.002   0.000   0.002
   73        0.000   0.002   0.000   0.002
   74        0.000   0.002   0.000   0.002
   75        0.000   0.001   0.000   0.002
   76        0.000   0.001   0.000   0.002
   77        0.000   0.001   0.000   0.002
   78        0.000   0.001   0.000   0.002
   79        0.000   0.001   0.000   0.002
   80        0.000   0.001   0.000   0.002
   81        0.000   0.001   0.000   0.002
   82        0.000   0.001   0.000   0.002
   83        0.000   0.001   0.000   0.002
   84        0.000   0.001   0.000   0.002
   85        0.000   0.001   0.000   0.002
   86        0.000   0.001   0.000   0.002
   87        0.000   0.001   0.000   0.002
   88        0.000   0.001   0.000   0.002
   89        0.000   0.001   0.000   0.002
   90        0.000   0.001   0.000   0.002
   91        0.000   0.003   0.001   0.004
   92        0.000   0.003   0.001   0.004
   93        0.000   0.003   0.001   0.004
   94        0.000   0.003   0.001   0.004
   95        0.000   0.003   0.001   0.004
   96        0.000   0.003   0.001   0.004
   97        0.000   0.003   0.001   0.004
   98        0.000   0.003   0.001   0.004
   99        0.000   0.003   0.001   0.004
  100        0.000   0.003   0.001   0.004
  101        0.000   0.003   0.001   0.004
  102        0.000   0.003   0.001   0.004
  103        0.000   0.003   0.001   0.004
  104        0.000   0.003   0.001   0.004
  105        0.000   0.003   0.001   0.004
  106        0.000   0.003   0.001   0.004
  107        0.001   0.002   0.001   0.004
  108        0.001   0.002   0.001   0.004
  109        0.001   0.002   0.001   0.004
  110        0.001   0.002   0.001   0.004
  111        0.001   0.002   0.001   0.004
  112        0.001   0.002   0.001   0.004
  113        0.001   0.002   0.001   0.004
  114        0.001   0.002   0.001   0.004
  115        0.001   0.002   0.001   0.004
  116        0.001   0.002   0.001   0.004
  117        0.001   0.002   0.001   0.004
  118        0.001   0.002   0.001   0.004
  119        0.001   0.002   0.001   0.004
  120        0.001   0.002   0.001   0.004
  121        0.001   0.002   0.001   0.004
  122        0.001   0.002   0.001   0.004
  123        0.001   0.004   0.001   0.006
  124        0.001   0.004   0.001   0.006
  125        0.001   0.004   0.001   0.006
  126        0.001   0.004   0.001   0.006
  127        0.001   0.004   0.001   0.006
  128        0.001   0.004   0.001   0.006
  129        0.001   0.004   0.001   0.006
  130        0.001   0.004   0.001   0.006
  131        0.001   0.004   0.001   0.006
  132        0.001   0.004   0.001   0.006
  133        0.001   0.004   0.001   0.006
  134        0.001   0.004   0.001   0.006
  135        0.001   0.004   0.001   0.006
  136        0.001   0.004   0.001   0.006
  137        0.001   0.004   0.001   0.006
  138        0.001   0.004   0.001   0.006
  139        0.001   0.003   0.001   0.005
  140        0.001   0.003   0.001   0.005
  141        0.001   0.003   0.001   0.005
  142        0.001   0.003   0.001   0.005
  143        0.001   0.003   0.001   0.005
  144        0.001   0.003   0.001   0.005
  145        0.001   0.003   0.001   0.005
  146        0.001   0.003   0.001   0.005
  147        0.001   0.003   0.001   0.005
  148        0.001   0.003   0.001   0.006
  149        0.001   0.003   0.001   0.005
  150        0.001   0.003   0.001   0.005
  151        0.001   0.003   0.001   0.005
  152        0.001   0.003   0.001   0.005
  153        0.001   0.003   0.001   0.005
  154        0.001   0.003   0.001   0.005
  155        0.001   0.003   0.001   0.005
  156        0.001   0.003   0.001   0.006
  157        0.001   0.003   0.001   0.006
  158        0.001   0.003   0.001   0.006
  159        0.001   0.003   0.001   0.005
  160        0.001   0.003   0.001   0.005
  161        0.001   0.003   0.001   0.005
  162        0.001   0.003   0.001   0.005
  163        0.001   0.003   0.001   0.005
  164        0.001   0.003   0.001   0.006
  165        0.001   0.003   0.001   0.005
  166        0.001   0.003   0.001   0.006
  167        0.001   0.003   0.001   0.006
  168        0.001   0.003   0.001   0.005
  169        0.001   0.003   0.001   0.005
  170        0.001   0.003   0.001   0.006
  171        0.001   0.004   0.001   0.006
  172        0.001   0.004   0.001   0.006
  173        0.001   0.004   0.001   0.006
  174        0.001   0.004   0.001   0.006
  175        0.001   0.004   0.001   0.006
  176        0.001   0.004   0.001   0.006
  177        0.001   0.004   0.001   0.006
  178        0.001   0.004   0.001   0.006
  179        0.001   0.004   0.001   0.006
  180        0.001   0.004   0.001   0.006
  181        0.001   0.004   0.001   0.006
  182        0.001   0.004   0.001   0.006
  183        0.001   0.004   0.001   0.006
  184        0.001   0.004   0.001   0.006
  185        0.001   0.004   0.001   0.006
  186        0.001   0.004   0.001   0.006
  187        0.001   0.003   0.001   0.004
  188        0.001   0.002   0.001   0.004
  189        0.001   0.003   0.001   0.004
  190        0.001   0.002   0.001   0.004
  191        0.001   0.002   0.001   0.004
  192        0.001   0.003   0.001   0.004
  193        0.001   0.002   0.001   0.004
  194        0.001   0.002   0.001   0.004
  195        0.001   0.002   0.001   0.004
  196        0.001   0.002   0.001   0.004
  197        0.001   0.002   0.001   0.004
  198        0.001   0.002   0.001   0.004
  199        0.001   0.002   0.001   0.004
  200        0.001   0.002   0.001   0.004
  201        0.001   0.002   0.001   0.004
  202        0.001   0.002   0.001   0.004
  203        0.000   0.003   0.001   0.004
  204        0.000   0.003   0.001   0.004
  205        0.000   0.003   0.001   0.004
  206        0.000   0.003   0.001   0.004
  207        0.000   0.003   0.001   0.004
  208        0.000   0.003   0.001   0.004
  209        0.000   0.003   0.001   0.004
  210        0.000   0.003   0.001   0.004
  211        0.000   0.003   0.001   0.004
  212        0.000   0.003   0.001   0.004
  213        0.000   0.003   0.001   0.004
  214        0.000   0.003   0.001   0.004
  215        0.000   0.003   0.001   0.004
  216        0.000   0.003   0.001   0.004
  217        0.000   0.003   0.001   0.004
  218        0.000   0.003   0.001   0.004
  219        0.000   0.001   0.000   0.002
  220        0.000   0.001   0.000   0.002
  221        0.000   0.001   0.000   0.002
  222        0.000   0.001   0.000   0.002
  223        0.000   0.001   0.000   0.002
  224        0.000   0.001   0.000   0.002
  225        0.000   0.001   0.000   0.002
  226        0.000   0.001   0.000   0.002
  227        0.000   0.001   0.000   0.002
  228        0.000   0.001   0.000   0.002
  229        0.000   0.001   0.000   0.002
  230        0.000   0.001   0.000   0.002
  231        0.000   0.001   0.000   0.002
  232        0.000   0.001   0.000   0.002
  233        0.000   0.001   0.000   0.002
  234        0.000   0.001   0.000   0.002
  235        0.000   0.002   0.000   0.002
  236        0.000   0.002   0.000   0.003
  237        0.000   0.002   0.000   0.002
  238        0.000   0.002   0.000   0.003
  239        0.000   0.002   0.000   0.002
  240        0.000   0.002   0.000   0.002
  241        0.000   0.002   0.000   0.003
  242        0.000   0.002   0.000   0.003
  243        0.000   0.002   0.000   0.002
  244        0.000   0.002   0.000   0.003
  245        0.000   0.002   0.000   0.002
  246        0.000   0.002   0.000   0.003
  247        0.000   0.002   0.000   0.002
  248        0.000   0.002   0.000   0.002
  249        0.000   0.002   0.000   0.003
  250        0.000   0.002   0.000   0.002
--------------------------------------------------
tot          0.100   0.509   0.147   0.757
 
 BZINTS: Fermi energy:    1.554853;  876.000000 electrons
         Band energy:-0.402814E+04;  BLOECHL correction:   -0.021571
 BZINTS: Fermi energy:    0.419451;  872.000000 electrons
         Band energy:-0.402388E+04;  BLOECHL correction:   -0.014453

 total amount of memory used by VASP MPI-rank0  1415016. kBytes
=======================================================================

   base      :      30000. kBytes
   nonl-proj :     403744. kBytes
   fftplans  :      24493. kBytes
   grid      :      65928. kBytes
   one-center:        995. kBytes
   wavefun   :     889856. kBytes
 
  
  
 General timing and accounting informations for this job:
 ========================================================
  
                  Total CPU time used (sec):    25856.434
                            User time (sec):    25789.226
                          System time (sec):       67.207
                         Elapsed time (sec):    26071.653
  
                   Maximum memory used (kb):     2220384.
                   Average memory used (kb):          N/A
  
                          Minor page faults:     11467910
                          Major page faults:          106
                 Voluntary context switches:       116280
