 vasp.6.3.2 27Jun22 (build Oct 28 2022 14:47:18) complex                        
  
 executed on             LinuxIFC date 2024.04.16  11:32:29
 running on  640 total cores
 distrk:  each k-point on  320 cores,    2 groups
 distr:  one band on NCORE=  16 cores,   20 groups


--------------------------------------------------------------------------------------------------------


 INCAR:
   SYSTEM = Si_surface_6layer
   ISTART = 1
   ICHARG = 1
   LWAVE = F
   LCHARG = F
   IVDW = 12
   ISPIN = 2
   NUPDOWN = 2
   ISMEAR = -5
   SIGMA = 0.05
   ENCUT = 540
   EDIFF = 1e-7
   NELMIN = 5
   EDIFFG = -9.5e-3
   PREC = Accurate
   IBRION = -1
   ISIF = 2
   NSW = 0
   NBANDS = 640
   NCORE = 16
   KPAR = 2
   ISYM = 0
   IDIPOL = 3
   LORBIT = 11
   EMIN = -5
   EMAX = 3
   NEDOS = 4001

 POTCAR:    PAW_PBE C_GW 28Sep2005                
 POTCAR:    PAW_PBE H_GW 21Apr2008                
 POTCAR:    PAW_PBE C_GW 28Sep2005                
 POTCAR:    PAW_PBE H_GW 21Apr2008                
 POTCAR:    PAW_PBE Si_GW 04May2012               
 POTCAR:    PAW_PBE Ge_GW 04Okt2005               
 -----------------------------------------------------------------------------
|                                                                             |
|           W    W    AA    RRRRR   N    N  II  N    N   GGGG   !!!           |
|           W    W   A  A   R    R  NN   N  II  NN   N  G    G  !!!           |
|           W    W  A    A  R    R  N N  N  II  N N  N  G       !!!           |
|           W WW W  AAAAAA  RRRRR   N  N N  II  N  N N  G  GGG   !            |
|           WW  WW  A    A  R   R   N   NN  II  N   NN  G    G                |
|           W    W  A    A  R    R  N    N  II  N    N   GGGG   !!!           |
|                                                                             |
|     You use a magnetic or noncollinear calculation, but did not specify     |
|     the initial magnetic moment with the MAGMOM tag. Note that a            |
|     default of 7.843e-3 will be used for all atoms. This ferromagnetic      |
|     setup may break the symmetry of the crystal, in particular it may       |
|     rule out finding an antiferromagnetic solution. Thence, we              |
|     recommend setting the initial magnetic moment manually or verifying     |
|     carefully that this magnetic setup is desired.                          |
|                                                                             |
 -----------------------------------------------------------------------------

 POTCAR:    PAW_PBE C_GW 28Sep2005                
   SHA256 =  2c64eee1059aeb37bcbfbbf93191b6229a866e6b7fb7be04c2badc02647cde23 C_GW/POTCAR           
   COPYR  = (c) Copyright 28Sep2005 Georg Kresse                                                    
   COPYR  = This file is part of the software VASP. Any use, copying, and all other rights are regul
   COPYR  = If you do not have a valid VASP license, you may not use, copy or distribute this file. 
   VRHFIN =C: s2p2                                                                                  
   LEXCH  = PE                                                                                      
   EATOM  =   147.1560 eV,   10.8157 Ry                                                             
                                                                                                    
   TITEL  = PAW_PBE C_GW 28Sep2005                                                                  
   LULTRA =        F    use ultrasoft PP ?                                                          
   IUNSCR =        0    unscreen: 0-lin 1-nonlin 2-no                                               
   RPACOR =    0.000    partial core radius                                                         
   POMASS =   12.011; ZVAL   =    4.000    mass and valenz                                          
   RCORE  =    1.500    outmost cutoff radius                                                       
   RWIGS  =    1.630; RWIGS  =    0.863    wigner-seitz radius (au A)                               
   ENMAX  =  413.992; ENMIN  =  310.494 eV                                                          
   ICORE  =        2    local potential                                                             
   LCOR   =        T    correct aug charges                                                         
   LPAW   =        T    paw PP                                                                      
   EAUG   =  644.873                                                                                
   DEXC   =    0.000                                                                                
   RMAX   =    1.529    core radius for proj-oper                                                   
   RAUG   =    1.300    factor for augmentation sphere                                              
   RDEP   =    1.501    radius for radial grids                                                     
   RDEPT  =    1.300    core radius for aug-charge                                                  
                                                                                                    
   Atomic configuration                                                                             
    4 entries                                                                                       
     n  l   j            E        occ.                                                              
     1  0  0.50      -273.3789   2.0000                                                             
     2  0  0.50       -13.7508   2.0000                                                             
     2  1  0.50        -5.2854   2.0000                                                             
     3  2  1.50        -5.4423   0.0000                                                             
   Description                                                                                      
     l       E           TYP  RCUT    TYP  RCUT                                                     
     0    -13.7508457     23  1.200                                                                 
     0     95.2407820     23  1.200                                                                 
     1     -5.2854382     23  1.500                                                                 
     1    108.8466080     23  1.500                                                                 
     2     -5.4423304      7  1.500                                                                 
  local pseudopotential read in
  kinetic energy density of atom read in
  atomic valenz-charges read in
  non local Contribution for L=           0  read in
    real space projection operators read in
  non local Contribution for L=           0  read in
    real space projection operators read in
  non local Contribution for L=           1  read in
    real space projection operators read in
  non local Contribution for L=           1  read in
    real space projection operators read in
    PAW grid and wavefunctions read in
 
   number of l-projection  operators is LMAX  =           4
   number of lm-projection operators is LMMAX =           8
 
 POTCAR:    PAW_PBE H_GW 21Apr2008                
   SHA256 =  cecc88617a3d1ece9865646f5d462fc0f44fd1f68d6f2eb08f18a2e421902afb H_GW/POTCAR           
   COPYR  = (c) Copyright 21Apr2008 Georg Kresse                                                    
   COPYR  = This file is part of the software VASP. Any use, copying, and all other rights are regul
   COPYR  = If you do not have a valid VASP license, you may not use, copy or distribute this file. 
   VRHFIN =H: ultrasoft test                                                                        
   LEXCH  = PE                                                                                      
   EATOM  =    12.4884 eV,    0.9179 Ry                                                             
                                                                                                    
   TITEL  = PAW_PBE H_GW 21Apr2008                                                                  
   LULTRA =        F    use ultrasoft PP ?                                                          
   IUNSCR =        0    unscreen: 0-lin 1-nonlin 2-no                                               
   RPACOR =    0.000    partial core radius                                                         
   POMASS =    1.000; ZVAL   =    1.000    mass and valenz                                          
   RCORE  =    1.100    outmost cutoff radius                                                       
   RWIGS  =    1.100; RWIGS  =    0.582    wigner-seitz radius (au A)                               
   ENMAX  =  300.000; ENMIN  =  250.000 eV                                                          
   RCLOC  =    0.701    cutoff for local pot                                                        
   LCOR   =        T    correct aug charges                                                         
   LPAW   =        T    paw PP                                                                      
   EAUG   =  500.000                                                                                
   RMAX   =    1.123    core radius for proj-oper                                                   
   RAUG   =    1.200    factor for augmentation sphere                                              
   RDEP   =    1.112    radius for radial grids                                                     
   RDEPT  =    1.100    core radius for aug-charge                                                  
                                                                                                    
   Atomic configuration                                                                             
    3 entries                                                                                       
     n  l   j            E        occ.                                                              
     1  0  0.50        -6.4927   1.0000                                                             
     2  1  0.50        -3.4015   0.0000                                                             
     3  2  1.50        13.6058   0.0000                                                             
   Description                                                                                      
     l       E           TYP  RCUT    TYP  RCUT                                                     
     0     -6.4927495     23  0.950                                                                 
     0      6.8029130     23  0.950                                                                 
     1     -4.0817478     23  1.100                                                                 
     1    108.8466080     23  1.100                                                                 
     2     81.6349560     23  1.100                                                                 
  local pseudopotential read in
  kinetic energy density of atom read in
  atomic valenz-charges read in
  non local Contribution for L=           0  read in
    real space projection operators read in
  non local Contribution for L=           0  read in
    real space projection operators read in
  non local Contribution for L=           1  read in
    real space projection operators read in
  non local Contribution for L=           1  read in
    real space projection operators read in
  non local Contribution for L=           2  read in
    real space projection operators read in
    PAW grid and wavefunctions read in
 
   number of l-projection  operators is LMAX  =           5
   number of lm-projection operators is LMMAX =          13
 
 POTCAR:    PAW_PBE C_GW 28Sep2005                
   SHA256 =  2c64eee1059aeb37bcbfbbf93191b6229a866e6b7fb7be04c2badc02647cde23 C_GW/POTCAR           
   COPYR  = (c) Copyright 28Sep2005 Georg Kresse                                                    
   COPYR  = This file is part of the software VASP. Any use, copying, and all other rights are regul
   COPYR  = If you do not have a valid VASP license, you may not use, copy or distribute this file. 
   VRHFIN =C: s2p2                                                                                  
   LEXCH  = PE                                                                                      
   EATOM  =   147.1560 eV,   10.8157 Ry                                                             
                                                                                                    
   TITEL  = PAW_PBE C_GW 28Sep2005                                                                  
   LULTRA =        F    use ultrasoft PP ?                                                          
   IUNSCR =        0    unscreen: 0-lin 1-nonlin 2-no                                               
   RPACOR =    0.000    partial core radius                                                         
   POMASS =   12.011; ZVAL   =    4.000    mass and valenz                                          
   RCORE  =    1.500    outmost cutoff radius                                                       
   RWIGS  =    1.630; RWIGS  =    0.863    wigner-seitz radius (au A)                               
   ENMAX  =  413.992; ENMIN  =  310.494 eV                                                          
   ICORE  =        2    local potential                                                             
   LCOR   =        T    correct aug charges                                                         
   LPAW   =        T    paw PP                                                                      
   EAUG   =  644.873                                                                                
   DEXC   =    0.000                                                                                
   RMAX   =    1.529    core radius for proj-oper                                                   
   RAUG   =    1.300    factor for augmentation sphere                                              
   RDEP   =    1.501    radius for radial grids                                                     
   RDEPT  =    1.300    core radius for aug-charge                                                  
                                                                                                    
   Atomic configuration                                                                             
    4 entries                                                                                       
     n  l   j            E        occ.                                                              
     1  0  0.50      -273.3789   2.0000                                                             
     2  0  0.50       -13.7508   2.0000                                                             
     2  1  0.50        -5.2854   2.0000                                                             
     3  2  1.50        -5.4423   0.0000                                                             
   Description                                                                                      
     l       E           TYP  RCUT    TYP  RCUT                                                     
     0    -13.7508457     23  1.200                                                                 
     0     95.2407820     23  1.200                                                                 
     1     -5.2854382     23  1.500                                                                 
     1    108.8466080     23  1.500                                                                 
     2     -5.4423304      7  1.500                                                                 
  local pseudopotential read in
  kinetic energy density of atom read in
  atomic valenz-charges read in
  non local Contribution for L=           0  read in
    real space projection operators read in
  non local Contribution for L=           0  read in
    real space projection operators read in
  non local Contribution for L=           1  read in
    real space projection operators read in
  non local Contribution for L=           1  read in
    real space projection operators read in
    PAW grid and wavefunctions read in
 
   number of l-projection  operators is LMAX  =           4
   number of lm-projection operators is LMMAX =           8
 
 POTCAR:    PAW_PBE H_GW 21Apr2008                
   SHA256 =  cecc88617a3d1ece9865646f5d462fc0f44fd1f68d6f2eb08f18a2e421902afb H_GW/POTCAR           
   COPYR  = (c) Copyright 21Apr2008 Georg Kresse                                                    
   COPYR  = This file is part of the software VASP. Any use, copying, and all other rights are regul
   COPYR  = If you do not have a valid VASP license, you may not use, copy or distribute this file. 
   VRHFIN =H: ultrasoft test                                                                        
   LEXCH  = PE                                                                                      
   EATOM  =    12.4884 eV,    0.9179 Ry                                                             
                                                                                                    
   TITEL  = PAW_PBE H_GW 21Apr2008                                                                  
   LULTRA =        F    use ultrasoft PP ?                                                          
   IUNSCR =        0    unscreen: 0-lin 1-nonlin 2-no                                               
   RPACOR =    0.000    partial core radius                                                         
   POMASS =    1.000; ZVAL   =    1.000    mass and valenz                                          
   RCORE  =    1.100    outmost cutoff radius                                                       
   RWIGS  =    1.100; RWIGS  =    0.582    wigner-seitz radius (au A)                               
   ENMAX  =  300.000; ENMIN  =  250.000 eV                                                          
   RCLOC  =    0.701    cutoff for local pot                                                        
   LCOR   =        T    correct aug charges                                                         
   LPAW   =        T    paw PP                                                                      
   EAUG   =  500.000                                                                                
   RMAX   =    1.123    core radius for proj-oper                                                   
   RAUG   =    1.200    factor for augmentation sphere                                              
   RDEP   =    1.112    radius for radial grids                                                     
   RDEPT  =    1.100    core radius for aug-charge                                                  
                                                                                                    
   Atomic configuration                                                                             
    3 entries                                                                                       
     n  l   j            E        occ.                                                              
     1  0  0.50        -6.4927   1.0000                                                             
     2  1  0.50        -3.4015   0.0000                                                             
     3  2  1.50        13.6058   0.0000                                                             
   Description                                                                                      
     l       E           TYP  RCUT    TYP  RCUT                                                     
     0     -6.4927495     23  0.950                                                                 
     0      6.8029130     23  0.950                                                                 
     1     -4.0817478     23  1.100                                                                 
     1    108.8466080     23  1.100                                                                 
     2     81.6349560     23  1.100                                                                 
  local pseudopotential read in
  kinetic energy density of atom read in
  atomic valenz-charges read in
  non local Contribution for L=           0  read in
    real space projection operators read in
  non local Contribution for L=           0  read in
    real space projection operators read in
  non local Contribution for L=           1  read in
    real space projection operators read in
  non local Contribution for L=           1  read in
    real space projection operators read in
  non local Contribution for L=           2  read in
    real space projection operators read in
    PAW grid and wavefunctions read in
 
   number of l-projection  operators is LMAX  =           5
   number of lm-projection operators is LMMAX =          13
 
 POTCAR:    PAW_PBE Si_GW 04May2012               
   SHA256 =  9ee269d4247e69d62ab9db642b0c3f6e4981ddd1f39659ad08dec53e20e43eb1 Si_GW/POTCAR          
   COPYR  = (c) Copyright 04May2012 Georg Kresse                                                    
   COPYR  = This file is part of the software VASP. Any use, copying, and all other rights are regul
   COPYR  = If you do not have a valid VASP license, you may not use, copy or distribute this file. 
   VRHFIN =Si: s2p2                                                                                 
   LEXCH  = PE                                                                                      
   EATOM  =   103.0669 eV,    7.5752 Ry                                                             
                                                                                                    
   TITEL  = PAW_PBE Si_GW 04May2012                                                                 
   LULTRA =        F    use ultrasoft PP ?                                                          
   IUNSCR =        1    unscreen: 0-lin 1-nonlin 2-no                                               
   RPACOR =    1.500    partial core radius                                                         
   POMASS =   28.085; ZVAL   =    4.000    mass and valenz                                          
   RCORE  =    1.900    outmost cutoff radius                                                       
   RWIGS  =    2.480; RWIGS  =    1.312    wigner-seitz radius (au A)                               
   ENMAX  =  245.345; ENMIN  =  184.009 eV                                                          
   ICORE  =        3    local potential                                                             
   LCOR   =        T    correct aug charges                                                         
   LPAW   =        T    paw PP                                                                      
   EAUG   =  412.952                                                                                
   DEXC   =    0.000                                                                                
   RMAX   =    1.950    core radius for proj-oper                                                   
   RAUG   =    1.300    factor for augmentation sphere                                              
   RDEP   =    1.993    radius for radial grids                                                     
   RDEPT  =    2.000    core radius for aug-charge                                                  
                                                                                                    
   Atomic configuration                                                                             
    7 entries                                                                                       
     n  l   j            E        occ.                                                              
     1  0  0.50     -1785.8828   2.0000                                                             
     2  0  0.50      -139.4969   2.0000                                                             
     2  1  1.50       -95.5546   6.0000                                                             
     3  0  0.50       -10.8127   2.0000                                                             
     3  1  0.50        -4.0811   2.0000                                                             
     3  2  1.50        -4.0817   0.0000                                                             
     4  3  2.50        -4.0817   0.0000                                                             
   Description                                                                                      
     l       E           TYP  RCUT    TYP  RCUT                                                     
     0    -10.8127223     23  1.900                                                                 
     0     95.2407820     23  1.900                                                                 
     1     -4.0811372     23  1.900                                                                 
     1     54.4233040     23  1.900                                                                 
     2     -8.1634956     23  1.900                                                                 
     2     81.6349560     23  1.900                                                                 
     3     27.2116520     23  1.900                                                                 
  local pseudopotential read in
  partial core-charges read in
  partial kinetic energy density read in
  kinetic energy density of atom read in
  atomic valenz-charges read in
  non local Contribution for L=           0  read in
    real space projection operators read in
  non local Contribution for L=           0  read in
    real space projection operators read in
  non local Contribution for L=           1  read in
    real space projection operators read in
  non local Contribution for L=           1  read in
    real space projection operators read in
  non local Contribution for L=           2  read in
    real space projection operators read in
  non local Contribution for L=           2  read in
    real space projection operators read in
    PAW grid and wavefunctions read in
 
   number of l-projection  operators is LMAX  =           6
   number of lm-projection operators is LMMAX =          18
 
 POTCAR:    PAW_PBE Ge_GW 04Okt2005               
   SHA256 =  619a391c7d150d9e8927222c9f1eff764368a0123fea341b7e583c1da9b40563 Ge_GW/POTCAR          
   COPYR  = (c) Copyright 04Okt2005 Georg Kresse                                                    
   COPYR  = This file is part of the software VASP. Any use, copying, and all other rights are regul
   COPYR  = If you do not have a valid VASP license, you may not use, copy or distribute this file. 
   VRHFIN =Ge: s2p2                                                                                 
   LEXCH  = PE                                                                                      
   EATOM  =   104.9960 eV,    7.7170 Ry                                                             
                                                                                                    
   TITEL  = PAW_PBE Ge_GW 04Okt2005                                                                 
   LULTRA =        F    use ultrasoft PP ?                                                          
   IUNSCR =        1    unscreen: 0-lin 1-nonlin 2-no                                               
   RPACOR =    2.170    partial core radius                                                         
   POMASS =   72.610; ZVAL   =    4.000    mass and valenz                                          
   RCORE  =    2.300    outmost cutoff radius                                                       
   RWIGS  =    2.300; RWIGS  =    1.217    wigner-seitz radius (au A)                               
   ENMAX  =  173.807; ENMIN  =  130.355 eV                                                          
   ICORE  =        3    local potential                                                             
   LCOR   =        T    correct aug charges                                                         
   LPAW   =        T    paw PP                                                                      
   EAUG   =  385.843                                                                                
   DEXC   =    0.000                                                                                
   RMAX   =    2.342    core radius for proj-oper                                                   
   RAUG   =    1.300    factor for augmentation sphere                                              
   RDEP   =    2.318    radius for radial grids                                                     
   RDEPT  =    2.103    core radius for aug-charge                                                  
                                                                                                    
   Atomic configuration                                                                             
   10 entries                                                                                       
     n  l   j            E        occ.                                                              
     1  0  0.50    -10959.8463   2.0000                                                             
     2  0  0.50     -1371.6056   2.0000                                                             
     2  1  1.50     -1198.4791   6.0000                                                             
     3  0  0.50      -168.4733   2.0000                                                             
     3  1  1.50      -115.6019   6.0000                                                             
     3  2  2.50       -29.3106  10.0000                                                             
     4  0  0.50       -11.7309   2.0000                                                             
     4  1  0.50        -3.8952   2.0000                                                             
     4  2  1.50        -4.0817   0.0000                                                             
     4  3  2.50        -4.0817   0.0000                                                             
   Description                                                                                      
     l       E           TYP  RCUT    TYP  RCUT                                                     
     0    -11.7309491     23  2.300                                                                 
     0     54.4233040     23  2.300                                                                 
     1     -3.8952258     23  2.300                                                                 
     1     81.6349560     23  2.300                                                                 
     2     -4.0817478     23  2.300                                                                 
     3     -1.3605826      7  2.300                                                                 
  local pseudopotential read in
  partial core-charges read in
  partial kinetic energy density read in
  kinetic energy density of atom read in
  atomic valenz-charges read in
  non local Contribution for L=           0  read in
    real space projection operators read in
  non local Contribution for L=           0  read in
    real space projection operators read in
  non local Contribution for L=           1  read in
    real space projection operators read in
  non local Contribution for L=           1  read in
    real space projection operators read in
  non local Contribution for L=           2  read in
    real space projection operators read in
    PAW grid and wavefunctions read in
 
   number of l-projection  operators is LMAX  =           5
   number of lm-projection operators is LMMAX =          13
 
 -----------------------------------------------------------------------------
|                                                                             |
|               ----> ADVICE to this user running VASP <----                  |
|                                                                             |
|     You have a (more or less) 'large supercell' and for larger cells it     |
|     might be more efficient to use real-space projection operators.         |
|     Therefore, try LREAL= Auto in the INCAR file.                           |
|     Mind: For very accurate calculation, you might also keep the            |
|     reciprocal projection scheme (i.e. LREAL=.FALSE.).                      |
|                                                                             |
 -----------------------------------------------------------------------------

  PAW_PBE C_GW 28Sep2005                :
 energy of atom  1       EATOM= -147.1560
 kinetic energy error for atom=    0.0068 (will be added to EATOM!!)
  PAW_PBE H_GW 21Apr2008                :
 energy of atom  2       EATOM=  -12.4884
 kinetic energy error for atom=    0.0069 (will be added to EATOM!!)
  PAW_PBE C_GW 28Sep2005                :
 energy of atom  3       EATOM= -147.1560
 kinetic energy error for atom=    0.0068 (will be added to EATOM!!)
  PAW_PBE H_GW 21Apr2008                :
 energy of atom  4       EATOM=  -12.4884
 kinetic energy error for atom=    0.0069 (will be added to EATOM!!)
  PAW_PBE Si_GW 04May2012               :
 energy of atom  5       EATOM= -103.0669
 kinetic energy error for atom=    0.0005 (will be added to EATOM!!)
  PAW_PBE Ge_GW 04Okt2005               :
 energy of atom  6       EATOM= -104.9960
 kinetic energy error for atom=    0.0002 (will be added to EATOM!!)
 
 
 POSCAR: 4x4_si_surface_from540eV_1x1x1conv
  positions in direct lattice
  velocities in cartesian coordinates
 exchange correlation table for  LEXCH =        8
   RHO(1)=    0.500       N(1)  =     2000
   RHO(2)=  100.500       N(2)  =     4000
 


--------------------------------------------------------------------------------------------------------


 ion  position               nearest neighbor table
   1  0.400  0.223  0.557-  15 1.09   3 1.37   2 1.42
   2  0.353  0.316  0.540-  16 1.09   6 1.37   1 1.42
   3  0.499  0.181  0.566-  17 1.09   1 1.37   4 1.43
   4  0.556  0.230  0.559-   7 1.40   3 1.43   5 1.45
   5  0.508  0.325  0.542-  10 1.42   6 1.43   4 1.45
   6  0.405  0.364  0.533-  18 1.09   2 1.37   5 1.43
   7  0.657  0.185  0.567-  19 1.09   4 1.40   8 1.40
   8  0.715  0.229  0.559-   7 1.40  11 1.43   9 1.45
   9  0.667  0.325  0.542-  10 1.42  14 1.43   8 1.45
  10  0.563  0.373  0.534-   9 1.42   5 1.42 255 2.01
  11  0.820  0.181  0.566-  20 1.09  12 1.37   8 1.43
  12  0.877  0.222  0.557-  21 1.09  11 1.37  13 1.42
  13  0.832  0.315  0.540-  22 1.09  14 1.37  12 1.42
  14  0.731  0.364  0.533-  23 1.09  13 1.37   9 1.43
  15  0.358  0.185  0.562-   1 1.09
  16  0.275  0.348  0.532-   2 1.09
  17  0.537  0.109  0.579-   3 1.09
  18  0.368  0.433  0.519-   6 1.09
  19  0.693  0.113  0.580-   7 1.09
  20  0.853  0.109  0.579-  11 1.09
  21  0.957  0.184  0.563-  12 1.09
  22  0.878  0.347  0.532-  13 1.09
  23  0.700  0.433  0.519-  14 1.09
  24  0.354  0.592  0.531-  27 1.09  28 1.10  26 1.10 255 1.99
  25  0.555  0.592  0.531-  31 1.09  30 1.10  29 1.10 255 1.99
  26  0.351  0.566  0.555-  24 1.10
  27  0.298  0.588  0.516-  24 1.09
  28  0.336  0.671  0.532-  24 1.10
  29  0.584  0.566  0.555-  25 1.10
  30  0.494  0.671  0.532-  25 1.10
  31  0.615  0.588  0.516-  25 1.09
  32  0.000  1.000  0.021-  63 1.50
  33  0.500  1.000  0.021-  64 1.50
  34  0.000  0.500  0.021-  65 1.50
  35  0.500  0.500  0.021-  66 1.50
  36  0.250  1.000  0.021-  67 1.50
  37  0.750  1.000  0.021-  68 1.50
  38  0.250  0.500  0.021-  69 1.50
  39  0.750  0.500  0.021-  70 1.50
  40  0.000  0.250  0.021-  71 1.50
  41  0.500  0.250  0.021-  72 1.50
  42  0.000  0.750  0.021-  73 1.50
  43  0.500  0.750  0.021-  74 1.50
  44  0.250  0.250  0.021-  75 1.50
  45  0.750  0.250  0.021-  76 1.50
  46  0.250  0.750  0.021-  77 1.50
  47  0.750  0.750  0.021-  78 1.50
  48  0.001  0.000  0.487- 239 1.50
  49  0.499  0.000  0.487- 240 1.50
  50  0.001  0.499  0.487- 241 1.51
  51  0.251  0.999  0.487- 243 1.51
  52  0.749  0.002  0.487- 244 1.50
  53  0.241  0.503  0.487- 245 1.50
  54  0.756  0.503  0.487- 246 1.50
  55  0.001  0.249  0.487- 247 1.50
  56  0.508  0.239  0.487- 248 1.49
  57  0.001  0.749  0.488- 249 1.50
  58  0.499  0.756  0.487- 250 1.50
  59  0.250  0.249  0.487- 251 1.50
  60  0.754  0.239  0.487- 252 1.49
  61  0.245  0.756  0.487- 253 1.50
  62  0.750  0.749  0.488- 254 1.50
  63  0.000  1.000  0.057-  32 1.50  83 2.34  87 2.34  91 2.34
  64  0.500  1.000  0.057-  33 1.50  84 2.34  92 2.34  88 2.34
  65  0.000  0.500  0.057-  34 1.50  85 2.34  89 2.34  93 2.34
  66  0.500  0.500  0.057-  35 1.50  90 2.34  86 2.34  94 2.34
  67  0.250  1.000  0.057-  36 1.50  80 2.34  91 2.34  88 2.34
  68  0.750  1.000  0.057-  37 1.50  92 2.34  79 2.34  87 2.34
  69  0.250  0.500  0.057-  38 1.50  93 2.34  82 2.34  90 2.34
  70  0.750  0.500  0.057-  39 1.50  89 2.34  81 2.34  94 2.34
  71  0.000  0.250  0.057-  40 1.50  85 2.34  81 2.34  91 2.34
  72  0.500  0.250  0.057-  41 1.50  92 2.34  82 2.34  86 2.34
  73  0.000  0.750  0.057-  42 1.50  79 2.34  83 2.34  93 2.34
  74  0.500  0.750  0.057-  43 1.50  80 2.34  84 2.34  94 2.34
  75  0.250  0.250  0.057-  44 1.50  85 2.34  82 2.34  88 2.34
  76  0.750  0.250  0.057-  45 1.50  87 2.34  86 2.34  81 2.34
  77  0.250  0.750  0.057-  46 1.50  83 2.34  80 2.34  90 2.34
  78  0.750  0.750  0.057-  47 1.50  84 2.34  79 2.34  89 2.34
  79  0.834  0.833  0.075-  73 2.34  68 2.34  78 2.34  95 2.35
  80  0.334  0.833  0.075-  74 2.34  77 2.34  67 2.34  96 2.35
  81  0.834  0.333  0.075-  76 2.34  70 2.34  71 2.34  97 2.35
  82  0.334  0.333  0.075-  72 2.34  69 2.34  75 2.34  98 2.35
  83  0.084  0.833  0.075-  77 2.34  73 2.34  63 2.34  99 2.35
  84  0.584  0.833  0.075-  78 2.34  74 2.34  64 2.34 100 2.35
  85  0.084  0.333  0.075-  75 2.34  71 2.34  65 2.34 101 2.35
  86  0.584  0.333  0.075-  66 2.34  76 2.34  72 2.34 102 2.35
  87  0.834  0.083  0.075-  76 2.34  63 2.34  68 2.34 103 2.35
  88  0.334  0.083  0.075-  75 2.34  67 2.34  64 2.34 104 2.35
  89  0.834  0.583  0.075-  70 2.34  65 2.34  78 2.34 105 2.35
  90  0.334  0.583  0.075-  66 2.34  69 2.34  77 2.34 106 2.35
  91  0.084  0.083  0.075-  71 2.34  67 2.34  63 2.34 107 2.35
  92  0.584  0.083  0.075-  72 2.34  68 2.34  64 2.34 108 2.35
  93  0.084  0.583  0.075-  69 2.34  73 2.34  65 2.34 109 2.35
  94  0.584  0.583  0.075-  66 2.34  70 2.34  74 2.34 110 2.35
  95  0.834  0.833  0.132-  79 2.35 119 2.35 123 2.35 115 2.35
  96  0.334  0.833  0.132-  80 2.35 116 2.35 120 2.35 124 2.35
  97  0.834  0.333  0.132-  81 2.35 121 2.35 117 2.35 125 2.35
  98  0.334  0.333  0.132-  82 2.35 126 2.35 118 2.35 122 2.35
  99  0.084  0.833  0.132-  83 2.35 120 2.35 112 2.35 123 2.35
 100  0.584  0.833  0.132-  84 2.35 124 2.35 111 2.35 119 2.35
 101  0.084  0.333  0.132-  85 2.35 114 2.35 125 2.35 122 2.35
 102  0.584  0.333  0.132-  86 2.35 121 2.35 113 2.35 126 2.35
 103  0.834  0.083  0.132-  87 2.35 113 2.35 117 2.35 123 2.35
 104  0.334  0.083  0.132-  88 2.35 118 2.35 124 2.35 114 2.35
 105  0.834  0.583  0.132-  89 2.35 111 2.35 125 2.35 115 2.35
 106  0.334  0.583  0.132-  90 2.35 112 2.35 116 2.35 126 2.35
 107  0.084  0.083  0.132-  91 2.35 117 2.35 120 2.35 114 2.35
 108  0.584  0.083  0.132-  92 2.35 118 2.35 113 2.35 119 2.35
 109  0.084  0.583  0.132-  93 2.35 112 2.35 122 2.35 115 2.35
 110  0.584  0.583  0.132-  94 2.35 111 2.35 121 2.35 116 2.35
 111  0.667  0.666  0.151- 127 2.34 100 2.35 105 2.35 110 2.35
 112  0.167  0.666  0.151- 128 2.34 109 2.35  99 2.35 106 2.35
 113  0.667  0.166  0.151- 129 2.34 102 2.35 108 2.35 103 2.35
 114  0.167  0.167  0.151- 130 2.34 101 2.35 107 2.35 104 2.35
 115  0.917  0.666  0.151- 131 2.34 109 2.35 105 2.35  95 2.35
 116  0.417  0.666  0.151- 132 2.34  96 2.35 110 2.35 106 2.35
 117  0.917  0.166  0.151- 133 2.34  97 2.35 103 2.35 107 2.35
 118  0.417  0.166  0.151- 134 2.34 108 2.35  98 2.35 104 2.35
 119  0.667  0.916  0.151- 135 2.34 100 2.35  95 2.35 108 2.35
 120  0.167  0.916  0.151- 136 2.34  96 2.35  99 2.35 107 2.35
 121  0.667  0.416  0.151- 137 2.34  97 2.35 102 2.35 110 2.35
 122  0.167  0.416  0.151- 138 2.34 101 2.35 109 2.35  98 2.35
 123  0.917  0.916  0.151- 139 2.34  99 2.35  95 2.35 103 2.35
 124  0.417  0.916  0.151- 140 2.34 100 2.35  96 2.35 104 2.35
 125  0.917  0.416  0.151- 141 2.34 101 2.35 105 2.35  97 2.35
 126  0.417  0.416  0.151- 142 2.34  98 2.35 102 2.35 106 2.35
 127  0.667  0.667  0.207- 111 2.34 151 2.35 147 2.35 155 2.35
 128  0.167  0.666  0.207- 112 2.34 152 2.35 156 2.35 148 2.35
 129  0.667  0.167  0.207- 113 2.34 153 2.35 157 2.35 149 2.35
 130  0.167  0.167  0.207- 114 2.34 150 2.35 158 2.35 154 2.35
 131  0.917  0.666  0.207- 115 2.34 155 2.35 152 2.35 144 2.35
 132  0.417  0.666  0.207- 116 2.34 156 2.35 151 2.35 143 2.35
 133  0.917  0.167  0.207- 117 2.34 157 2.35 154 2.35 146 2.35
 134  0.417  0.167  0.207- 118 2.34 158 2.35 145 2.35 153 2.35
 135  0.667  0.916  0.207- 119 2.34 145 2.35 149 2.35 155 2.35
 136  0.167  0.916  0.207- 120 2.34 146 2.35 150 2.35 156 2.35
 137  0.667  0.416  0.207- 121 2.34 143 2.35 147 2.35 157 2.35
 138  0.167  0.416  0.207- 122 2.34 144 2.35 148 2.35 158 2.35
 139  0.917  0.916  0.207- 123 2.34 149 2.35 146 2.35 152 2.35
 140  0.417  0.916  0.207- 124 2.34 150 2.35 145 2.35 151 2.35
 141  0.917  0.416  0.207- 125 2.34 147 2.35 154 2.35 144 2.35
 142  0.417  0.416  0.207- 126 2.34 148 2.35 143 2.35 153 2.35
 143  0.500  0.500  0.226- 159 2.34 137 2.35 142 2.35 132 2.35
 144  0.000  0.500  0.226- 160 2.35 138 2.35 131 2.35 141 2.35
 145  0.500  1.000  0.226- 161 2.34 135 2.35 140 2.35 134 2.35
 146  0.000  1.000  0.226- 162 2.34 136 2.35 139 2.35 133 2.35
 147  0.750  0.500  0.226- 163 2.34 141 2.35 127 2.35 137 2.35
 148  0.250  0.500  0.226- 164 2.34 142 2.35 138 2.35 128 2.35
 149  0.750  1.000  0.226- 165 2.34 139 2.35 135 2.35 129 2.35
 150  0.250  1.000  0.226- 166 2.34 140 2.35 136 2.35 130 2.35
 151  0.500  0.750  0.226- 167 2.35 127 2.35 132 2.35 140 2.35
 152  0.000  0.750  0.226- 168 2.35 128 2.35 131 2.35 139 2.35
 153  0.500  0.250  0.226- 169 2.35 129 2.35 142 2.35 134 2.35
 154  0.000  0.250  0.226- 170 2.35 141 2.35 133 2.35 130 2.35
 155  0.750  0.750  0.226- 171 2.34 131 2.35 135 2.35 127 2.35
 156  0.250  0.750  0.226- 172 2.35 132 2.35 128 2.35 136 2.35
 157  0.750  0.250  0.226- 173 2.35 133 2.35 129 2.35 137 2.35
 158  0.250  0.250  0.226- 174 2.35 134 2.35 138 2.35 130 2.35
 159  0.500  0.500  0.282- 143 2.34 183 2.35 179 2.35 187 2.35
 160  0.001  0.500  0.282- 144 2.35 184 2.35 188 2.35 180 2.35
 161  0.501  1.000  0.282- 145 2.34 185 2.35 189 2.35 181 2.35
 162  0.001  1.000  0.282- 146 2.34 186 2.35 190 2.35 182 2.35
 163  0.750  0.500  0.282- 147 2.34 187 2.35 176 2.35 184 2.35
 164  0.250  0.500  0.282- 148 2.34 183 2.35 188 2.35 175 2.35
 165  0.751  1.000  0.282- 149 2.34 186 2.35 189 2.35 178 2.35
 166  0.251  1.000  0.282- 150 2.34 190 2.35 185 2.35 177 2.35
 167  0.501  0.750  0.282- 151 2.35 177 2.35 181 2.35 187 2.35
 168  0.001  0.750  0.282- 152 2.35 178 2.35 182 2.35 188 2.35
 169  0.501  0.250  0.282- 153 2.35 175 2.35 189 2.35 179 2.35
 170  0.000  0.250  0.282- 154 2.35 190 2.35 180 2.35 176 2.35
 171  0.750  0.750  0.282- 155 2.34 181 2.35 184 2.35 178 2.35
 172  0.251  0.750  0.282- 156 2.35 182 2.35 177 2.35 183 2.35
 173  0.750  0.250  0.282- 157 2.35 176 2.35 179 2.35 186 2.35
 174  0.251  0.250  0.282- 158 2.35 180 2.35 185 2.35 175 2.35
 175  0.334  0.333  0.301- 164 2.35 169 2.35 174 2.35 191 2.35
 176  0.833  0.333  0.301- 163 2.35 173 2.35 170 2.35 192 2.35
 177  0.334  0.833  0.301- 167 2.35 166 2.35 172 2.35 193 2.35
 178  0.834  0.833  0.301- 194 2.35 168 2.35 171 2.35 165 2.35
 179  0.584  0.333  0.301- 159 2.35 173 2.35 169 2.35 195 2.35
 180  0.084  0.333  0.301- 196 2.34 174 2.35 160 2.35 170 2.35
 181  0.584  0.833  0.301- 197 2.34 171 2.35 161 2.35 167 2.35
 182  0.084  0.833  0.301- 198 2.34 172 2.35 168 2.35 162 2.35
 183  0.334  0.583  0.301- 164 2.35 159 2.35 172 2.35 199 2.35
 184  0.834  0.583  0.301- 200 2.34 160 2.35 171 2.35 163 2.35
 185  0.334  0.083  0.301- 201 2.34 166 2.35 161 2.35 174 2.35
 186  0.834  0.083  0.301- 202 2.34 165 2.35 162 2.35 173 2.35
 187  0.584  0.583  0.301- 163 2.35 159 2.35 167 2.35 203 2.35
 188  0.084  0.583  0.301- 204 2.34 164 2.35 160 2.35 168 2.35
 189  0.584  0.083  0.301- 205 2.34 165 2.35 161 2.35 169 2.35
 190  0.084  0.083  0.301- 206 2.34 166 2.35 162 2.35 170 2.35
 191  0.334  0.334  0.358- 211 2.35 215 2.35 175 2.35 219 2.36
 192  0.833  0.334  0.358- 212 2.35 220 2.35 176 2.35 216 2.36
 193  0.334  0.832  0.358- 217 2.35 221 2.35 177 2.35 213 2.35
 194  0.834  0.833  0.358- 178 2.35 218 2.35 222 2.35 214 2.35
 195  0.583  0.334  0.358- 208 2.35 216 2.35 179 2.35 219 2.35
 196  0.084  0.333  0.357- 180 2.34 215 2.35 220 2.35 207 2.35
 197  0.584  0.833  0.357- 181 2.34 221 2.35 210 2.35 218 2.35
 198  0.084  0.833  0.358- 182 2.34 217 2.35 209 2.35 222 2.35
 199  0.334  0.583  0.358- 209 2.35 213 2.35 219 2.35 183 2.35
 200  0.834  0.583  0.358- 184 2.34 220 2.35 210 2.35 214 2.35
 201  0.334  0.083  0.357- 185 2.34 221 2.34 211 2.35 207 2.35
 202  0.834  0.083  0.357- 186 2.34 208 2.34 212 2.35 222 2.35
 203  0.584  0.582  0.358- 210 2.35 213 2.35 187 2.35 216 2.35
 204  0.084  0.583  0.358- 188 2.34 215 2.35 209 2.35 214 2.35
 205  0.584  0.083  0.357- 189 2.34 208 2.34 211 2.35 218 2.35
 206  0.084  0.083  0.357- 190 2.34 217 2.34 212 2.35 207 2.35
 207  0.167  0.166  0.376- 223 2.34 201 2.35 206 2.35 196 2.35
 208  0.667  0.166  0.376- 224 2.33 205 2.34 202 2.34 195 2.35
 209  0.167  0.666  0.376- 225 2.34 198 2.35 199 2.35 204 2.35
 210  0.667  0.666  0.376- 226 2.34 197 2.35 203 2.35 200 2.35
 211  0.417  0.166  0.376- 227 2.34 201 2.35 191 2.35 205 2.35
 212  0.917  0.166  0.376- 228 2.34 206 2.35 192 2.35 202 2.35
 213  0.417  0.666  0.377- 203 2.35 199 2.35 193 2.35 229 2.36
 214  0.917  0.666  0.376- 230 2.35 194 2.35 204 2.35 200 2.35
 215  0.167  0.416  0.376- 231 2.34 196 2.35 204 2.35 191 2.35
 216  0.666  0.417  0.378- 203 2.35 195 2.35 192 2.36 232 2.37
 217  0.167  0.917  0.376- 233 2.34 206 2.34 198 2.35 193 2.35
 218  0.667  0.916  0.376- 234 2.35 197 2.35 194 2.35 205 2.35
 219  0.418  0.417  0.378- 199 2.35 195 2.35 191 2.36 235 2.37
 220  0.917  0.416  0.376- 236 2.34 196 2.35 200 2.35 192 2.35
 221  0.417  0.917  0.376- 237 2.34 201 2.34 197 2.35 193 2.35
 222  0.917  0.916  0.376- 238 2.35 198 2.35 194 2.35 202 2.35
 223  0.167  0.167  0.433- 243 2.34 247 2.34 251 2.34 207 2.34
 224  0.667  0.166  0.432- 208 2.33 252 2.34 248 2.34 244 2.34
 225  0.167  0.667  0.433- 245 2.34 249 2.34 209 2.34 253 2.34
 226  0.667  0.667  0.433- 254 2.34 246 2.34 210 2.34 250 2.34
 227  0.417  0.166  0.433- 248 2.34 211 2.34 240 2.34 251 2.34
 228  0.917  0.166  0.432- 252 2.34 212 2.34 239 2.34 247 2.34
 229  0.418  0.665  0.434- 250 2.34 253 2.34 242 2.36 213 2.36
 230  0.917  0.666  0.433- 241 2.34 254 2.34 249 2.34 214 2.35
 231  0.167  0.416  0.433- 245 2.34 215 2.34 241 2.34 251 2.34
 232  0.665  0.417  0.435- 246 2.35 252 2.35 242 2.36 216 2.37
 233  0.167  0.917  0.432- 253 2.34 217 2.34 243 2.34 239 2.34
 234  0.667  0.917  0.433- 244 2.34 254 2.34 240 2.34 218 2.35
 235  0.418  0.417  0.435- 248 2.35 245 2.35 242 2.36 219 2.37
 236  0.918  0.416  0.432- 246 2.34 220 2.34 241 2.34 247 2.34
 237  0.417  0.917  0.432- 250 2.34 221 2.34 243 2.34 240 2.34
 238  0.917  0.917  0.433- 244 2.34 249 2.34 239 2.34 222 2.35
 239  0.000  0.000  0.451-  48 1.50 228 2.34 233 2.34 238 2.34
 240  0.500  0.000  0.451-  49 1.50 227 2.34 237 2.34 234 2.34
 241  0.001  0.500  0.451-  50 1.51 236 2.34 231 2.34 230 2.34
 242  0.500  0.501  0.455- 229 2.36 232 2.36 235 2.36 255 2.46
 243  0.250  1.000  0.451-  51 1.51 223 2.34 233 2.34 237 2.34
 244  0.750  0.000  0.451-  52 1.50 224 2.34 234 2.34 238 2.34
 245  0.249  0.500  0.451-  53 1.50 231 2.34 225 2.34 235 2.35
 246  0.751  0.500  0.451-  54 1.50 236 2.34 226 2.34 232 2.35
 247  0.000  0.250  0.451-  55 1.50 223 2.34 236 2.34 228 2.34
 248  0.502  0.248  0.451-  56 1.49 224 2.34 227 2.34 235 2.35
 249  0.001  0.750  0.451-  57 1.50 225 2.34 238 2.34 230 2.34
 250  0.500  0.751  0.451-  58 1.50 237 2.34 226 2.34 229 2.34
 251  0.251  0.250  0.451-  59 1.50 223 2.34 231 2.34 227 2.34
 252  0.751  0.248  0.451-  60 1.49 224 2.34 228 2.34 232 2.35
 253  0.250  0.751  0.451-  61 1.50 233 2.34 225 2.34 229 2.34
 254  0.750  0.750  0.451-  62 1.50 226 2.34 234 2.34 230 2.34
 255  0.495  0.511  0.514-  25 1.99  24 1.99  10 2.01 242 2.46
 

IMPORTANT INFORMATION: All symmetrisations will be switched off!
NOSYMM: (Re-)initialisation of all symmetry stuff for point group C_1.


----------------------------------------------------------------------------------------

                                     Primitive cell                                     

  volume of cell :    8461.3332

  direct lattice vectors                    reciprocal lattice vectors
    15.332987785  0.000000000  0.000000000     0.065218861 -0.037654127  0.000000000
     7.666493893 13.278756938  0.000000000     0.000000000  0.075308254  0.000000000
     0.000000000  0.000000000 41.557994843     0.000000000  0.000000000  0.024062759

  length of vectors
    15.332987785 15.332987785 41.557994843     0.075308254  0.075308254  0.024062759

  position of ions in fractional coordinates (direct lattice)
     0.399983197  0.222857565  0.556813105
     0.352834029  0.315569057  0.539815122
     0.498910683  0.181198662  0.565854779
     0.555583905  0.229520821  0.558653409
     0.507680767  0.325119367  0.541798557
     0.405016374  0.364263323  0.532665348
     0.657194688  0.185073086  0.567013404
     0.714683342  0.229226985  0.558715368
     0.667358965  0.324820595  0.541854726
     0.563466170  0.373257694  0.534189395
     0.819650330  0.180597503  0.565983408
     0.877234147  0.221961147  0.557002070
     0.832028616  0.314685261  0.540015090
     0.731209768  0.363635005  0.532782715
     0.357786540  0.184782925  0.562302608
     0.274905681  0.347735349  0.531892603
     0.536853436  0.109288468  0.578576610
     0.367676200  0.433389296  0.518743408
     0.693024228  0.113145643  0.579799303
     0.853318228  0.108716610  0.578718939
     0.957499513  0.183615011  0.562519830
     0.878048614  0.346631945  0.532161671
     0.699742732  0.432676542  0.518829217
     0.354066339  0.592362402  0.530689266
     0.554637138  0.591959416  0.530676033
     0.351133429  0.566152841  0.555026553
     0.297682990  0.588288035  0.515620264
     0.336496950  0.670946950  0.531747363
     0.583717801  0.565723225  0.555016822
     0.493826998  0.670635723  0.531723387
     0.615207086  0.587618091  0.515604158
     0.000317150  0.999859003  0.020647637
     0.500178888  0.999876483  0.020644304
     0.000308501  0.499778734  0.020631025
     0.500304192  0.499772638  0.020637649
     0.250281122  0.999888929  0.020653177
     0.750323164  0.999825000  0.020634628
     0.250332015  0.499793141  0.020634275
     0.750307697  0.499779595  0.020635791
     0.000363822  0.249686080  0.020640726
     0.500333014  0.249772801  0.020631902
     0.000344276  0.749728820  0.020620404
     0.500350208  0.749701535  0.020618369
     0.250365774  0.249658899  0.020644671
     0.750320229  0.249743616  0.020639849
     0.250349297  0.749693519  0.020625553
     0.750363701  0.749710862  0.020618284
     0.000973530  0.000456807  0.487425620
     0.499161624  0.000398716  0.487438090
     0.000845274  0.498732371  0.487420108
     0.250635916  0.999375137  0.487214384
     0.749207486  0.002227866  0.487457188
     0.241452782  0.502968617  0.487145971
     0.756378524  0.502775668  0.487137962
     0.001133688  0.249266662  0.487251947
     0.507654476  0.238900264  0.486948448
     0.001179892  0.749383552  0.487538545
     0.499258209  0.755870780  0.487013878
     0.250158549  0.249160965  0.487278127
     0.754214200  0.238803171  0.486951864
     0.245417960  0.755947342  0.487002946
     0.750059952  0.749362671  0.487554638
     0.000321248  0.999788535  0.056843462
     0.500286048  0.999794274  0.056840099
     0.000316642  0.499772859  0.056826864
     0.500316354  0.499767225  0.056832894
     0.250313637  0.999791983  0.056849312
     0.750323742  0.999778986  0.056830000
     0.250322407  0.499771709  0.056829955
     0.750319435  0.499768070  0.056831497
     0.000330075  0.249749893  0.056836685
     0.500321120  0.249770778  0.056827176
     0.000325346  0.749758859  0.056816089
     0.500330397  0.749749293  0.056814151
     0.250329024  0.249745099  0.056840665
     0.750319239  0.249764036  0.056835302
     0.250327746  0.749747773  0.056821260
     0.750332759  0.749755874  0.056813956
     0.833659048  0.833095833  0.075292603
     0.333665464  0.833085170  0.075289785
     0.833655981  0.333099725  0.075306456
     0.333655713  0.333101871  0.075302443
     0.083657292  0.833092054  0.075294026
     0.583661688  0.833091539  0.075285039
     0.083650075  0.333105742  0.075303763
     0.583650102  0.333102513  0.075309397
     0.833651786  0.083107298  0.075319468
     0.333646473  0.083107702  0.075347834
     0.833651800  0.583103827  0.075306415
     0.333658616  0.583095513  0.075315462
     0.083656949  0.083107149  0.075337285
     0.583654328  0.083108334  0.075305058
     0.083655149  0.583102830  0.075303129
     0.583651714  0.583098290  0.075309013
     0.833656650  0.833099034  0.131736933
     0.333668626  0.833081616  0.131731615
     0.833651690  0.333110967  0.131750364
     0.333648620  0.333111901  0.131745778
     0.083653534  0.833093510  0.131736357
     0.583668887  0.833091490  0.131727386
     0.083630568  0.333142547  0.131745986
     0.583645007  0.333111451  0.131753787
     0.833649488  0.083106361  0.131764597
     0.333659366  0.083100826  0.131795346
     0.833645601  0.583117505  0.131750127
     0.333652908  0.583104658  0.131761242
     0.083652832  0.083098715  0.131783367
     0.583661896  0.083104416  0.131748882
     0.083648013  0.583113449  0.131746423
     0.583645201  0.583108345  0.131754517
     0.666978365  0.666450309  0.150635036
     0.166974813  0.666444659  0.150639737
     0.666973441  0.166449492  0.150645830
     0.166942110  0.166507470  0.150658885
     0.916987041  0.666443901  0.150640137
     0.416979978  0.666451020  0.150645161
     0.916961808  0.166461784  0.150655956
     0.417011735  0.166464288  0.150649823
     0.666990572  0.916425072  0.150626482
     0.167022824  0.916377303  0.150632856
     0.666989603  0.416436043  0.150638243
     0.166983880  0.416450518  0.150637684
     0.916997665  0.916415556  0.150635879
     0.417033203  0.916364027  0.150634252
     0.916974619  0.416455047  0.150642284
     0.416981040  0.416429505  0.150644741
     0.666912771  0.666502146  0.207054023
     0.166913832  0.666490097  0.207059076
     0.666903572  0.166505796  0.207066054
     0.166840877  0.166608216  0.207081695
     0.916925287  0.666498381  0.207059076
     0.416924896  0.666478801  0.207065332
     0.916924843  0.166502784  0.207074716
     0.416964450  0.166514080  0.207067498
     0.666917740  0.916482624  0.207042472
     0.166949515  0.916440451  0.207046322
     0.666916166  0.416489286  0.207054504
     0.166920589  0.416475731  0.207055707
     0.916948599  0.916463044  0.207052338
     0.417010181  0.916404303  0.207048247
     0.916938715  0.416491546  0.207060760
     0.416920210  0.416479496  0.207063407
     0.500279803  0.499793771  0.225880725
     0.000286894  0.499823141  0.225881206
     0.500286339  0.999800664  0.225855218
     0.000320870  0.999766022  0.225860993
     0.750281649  0.499817869  0.225854256
     0.250254794  0.499799042  0.225867972
     0.750288455  0.999772047  0.225843668
     0.250321956  0.999811207  0.225778939
     0.500318627  0.749731322  0.225913691
     0.000284064  0.749798347  0.225892034
     0.500294035  0.249847935  0.225932941
     0.000167071  0.249892367  0.225949063
     0.750268975  0.749823199  0.225866528
     0.250286631  0.749772742  0.225893238
     0.750254458  0.249828355  0.225887944
     0.250348654  0.249823083  0.225897809
     0.500493255  0.499630352  0.282306210
     0.000507458  0.499689845  0.282308616
     0.500513264  0.999625949  0.282269634
     0.000590424  0.999563443  0.282277815
     0.750462221  0.499707166  0.282266987
     0.250444759  0.499655203  0.282285516
     0.750511199  0.999576998  0.282251106
     0.250602046  0.999607122  0.282152689
     0.500567070  0.749503138  0.282355538
     0.000500851  0.749638693  0.282323535
     0.500538770  0.249743257  0.282382488
     0.000225332  0.249850194  0.282402942
     0.750461946  0.749692915  0.282286959
     0.250518028  0.749579953  0.282324497
     0.750410953  0.249707109  0.282316557
     0.250663530  0.249703343  0.282328588
     0.333911354  0.333138111  0.301228922
     0.833405059  0.333254086  0.301238066
     0.333805944  0.833063671  0.301059280
     0.833840171  0.832952968  0.301133634
     0.583872308  0.333105728  0.301240713
     0.083986248  0.332956618  0.301087193
     0.583828924  0.832981585  0.301119918
     0.083885719  0.832911548  0.301156975
     0.333845639  0.582839948  0.301129784
     0.833818526  0.583026712  0.301096818
     0.333845099  0.082899326  0.301046045
     0.833882101  0.082883511  0.301022704
     0.583983990  0.582734516  0.301185850
     0.083862447  0.582975503  0.301169969
     0.583900505  0.082907610  0.301083102
     0.084068527  0.082895561  0.300980354
     0.334378134  0.333593284  0.357808745
     0.832582444  0.333607082  0.357811152
     0.334071504  0.832454408  0.357562091
     0.833755544  0.833076138  0.357568746
     0.583453720  0.333727271  0.357846098
     0.083854165  0.332959051  0.357383372
     0.583815065  0.833111580  0.357493568
     0.083680654  0.833115226  0.357515114
     0.334331839  0.582533521  0.357742688
     0.833695162  0.583150444  0.357513243
     0.333568385  0.083296560  0.357314736
     0.834142720  0.082812146  0.357334020
     0.583763814  0.582497418  0.357787419
     0.083772226  0.583122041  0.357568415
     0.583670483  0.082794917  0.357382299
     0.083784702  0.083281923  0.357261921
     0.167102392  0.166386395  0.376234683
     0.667271958  0.166108771  0.375760109
     0.167311837  0.666419906  0.376323594
     0.666904382  0.666425258  0.376324393
     0.416923559  0.166417212  0.376192455
     0.917307047  0.166385896  0.376153497
     0.417334689  0.665916191  0.376996498
     0.917084947  0.666399913  0.376469113
     0.167190930  0.416201237  0.376204499
     0.666361214  0.416693961  0.377723185
     0.167005093  0.916769450  0.376049068
     0.667115736  0.916362903  0.376497633
     0.417521586  0.416726322  0.377686331
     0.917210791  0.416226656  0.376156789
     0.416856803  0.916734576  0.376054571
     0.917093223  0.916401630  0.376479549
     0.167040084  0.166511043  0.432638787
     0.667439886  0.165743124  0.431858122
     0.167049038  0.666771131  0.432707912
     0.666808810  0.666751326  0.432716761
     0.417196898  0.166402837  0.432528168
     0.917003489  0.166396569  0.432493468
     0.417824389  0.664956318  0.433705310
     0.917060867  0.666452249  0.432937188
     0.166915034  0.416055182  0.432540293
     0.665317892  0.416792850  0.434714789
     0.166599068  0.917240987  0.432331417
     0.667046750  0.916532072  0.432976118
     0.418480146  0.416809399  0.434689383
     0.917638050  0.416052639  0.432492704
     0.416788577  0.917204750  0.432337840
     0.917004119  0.916547632  0.432960370
     0.000407078  0.000085277  0.451222740
     0.500107683  0.000065487  0.451235434
     0.000505529  0.499540279  0.451197981
     0.499793734  0.501004225  0.455322950
     0.250404578  0.999811433  0.450996758
     0.750160081  0.000278455  0.451261634
     0.249250555  0.500020145  0.451064048
     0.751383288  0.499976292  0.451055553
     0.000413587  0.249521999  0.451065621
     0.502162673  0.247612223  0.451100288
     0.000576645  0.749751978  0.451327666
     0.499769091  0.751122868  0.450935560
     0.250650233  0.249501027  0.451092905
     0.750868003  0.247581978  0.451103899
     0.249703710  0.751158945  0.450926232
     0.750269329  0.749747180  0.451344648
     0.494718990  0.511185486  0.514316525

  ion indices of the primitive-cell ions
   primitive index   ion index
                 1           1
                 2           2
                 3           3
                 4           4
                 5           5
                 6           6
                 7           7
                 8           8
                 9           9
                10          10
                11          11
                12          12
                13          13
                14          14
                15          15
                16          16
                17          17
                18          18
                19          19
                20          20
                21          21
                22          22
                23          23
                24          24
                25          25
                26          26
                27          27
                28          28
                29          29
                30          30
                31          31
                32          32
                33          33
                34          34
                35          35
                36          36
                37          37
                38          38
                39          39
                40          40
                41          41
                42          42
                43          43
                44          44
                45          45
                46          46
                47          47
                48          48
                49          49
                50          50
                51          51
                52          52
                53          53
                54          54
                55          55
                56          56
                57          57
                58          58
                59          59
                60          60
                61          61
                62          62
                63          63
                64          64
                65          65
                66          66
                67          67
                68          68
                69          69
                70          70
                71          71
                72          72
                73          73
                74          74
                75          75
                76          76
                77          77
                78          78
                79          79
                80          80
                81          81
                82          82
                83          83
                84          84
                85          85
                86          86
                87          87
                88          88
                89          89
                90          90
                91          91
                92          92
                93          93
                94          94
                95          95
                96          96
                97          97
                98          98
                99          99
               100         100
               101         101
               102         102
               103         103
               104         104
               105         105
               106         106
               107         107
               108         108
               109         109
               110         110
               111         111
               112         112
               113         113
               114         114
               115         115
               116         116
               117         117
               118         118
               119         119
               120         120
               121         121
               122         122
               123         123
               124         124
               125         125
               126         126
               127         127
               128         128
               129         129
               130         130
               131         131
               132         132
               133         133
               134         134
               135         135
               136         136
               137         137
               138         138
               139         139
               140         140
               141         141
               142         142
               143         143
               144         144
               145         145
               146         146
               147         147
               148         148
               149         149
               150         150
               151         151
               152         152
               153         153
               154         154
               155         155
               156         156
               157         157
               158         158
               159         159
               160         160
               161         161
               162         162
               163         163
               164         164
               165         165
               166         166
               167         167
               168         168
               169         169
               170         170
               171         171
               172         172
               173         173
               174         174
               175         175
               176         176
               177         177
               178         178
               179         179
               180         180
               181         181
               182         182
               183         183
               184         184
               185         185
               186         186
               187         187
               188         188
               189         189
               190         190
               191         191
               192         192
               193         193
               194         194
               195         195
               196         196
               197         197
               198         198
               199         199
               200         200
               201         201
               202         202
               203         203
               204         204
               205         205
               206         206
               207         207
               208         208
               209         209
               210         210
               211         211
               212         212
               213         213
               214         214
               215         215
               216         216
               217         217
               218         218
               219         219
               220         220
               221         221
               222         222
               223         223
               224         224
               225         225
               226         226
               227         227
               228         228
               229         229
               230         230
               231         231
               232         232
               233         233
               234         234
               235         235
               236         236
               237         237
               238         238
               239         239
               240         240
               241         241
               242         242
               243         243
               244         244
               245         245
               246         246
               247         247
               248         248
               249         249
               250         250
               251         251
               252         252
               253         253
               254         254
               255         255

----------------------------------------------------------------------------------------

 
 
 KPOINTS: auto                                    

Automatic generation of k-mesh.
 Grid dimensions read from file:
 generate k-points for:    7    7    1

 Generating k-lattice:

  Cartesian coordinates                     Fractional coordinates (reciprocal lattice)
     0.009316980 -0.005379161  0.000000000     0.142857143  0.000000000  0.000000000
     0.000000000  0.010758322  0.000000000     0.000000000  0.142857143  0.000000000
     0.000000000  0.000000000  0.024062759     0.000000000  0.000000000  1.000000000

  Length of vectors
     0.010758322  0.010758322  0.024062759

  Shift w.r.t. Gamma in fractional coordinates (k-lattice)
     0.000000000  0.000000000  0.000000000

 TETIRR: Found    144 inequivalent tetrahedra from      294
 
 Subroutine IBZKPT returns following result:
 ===========================================
 
 Found     25 irreducible k-points:
 
 Following reciprocal coordinates:
            Coordinates               Weight
  0.000000  0.000000  0.000000      1.000000
  0.142857  0.000000  0.000000      2.000000
  0.142857  0.142857  0.000000      2.000000
  0.000000  0.142857  0.000000      2.000000
  0.285714  0.000000  0.000000      2.000000
  0.285714  0.285714  0.000000      2.000000
  0.000000  0.285714  0.000000      2.000000
  0.428571 -0.000000  0.000000      2.000000
  0.428571  0.428571  0.000000      2.000000
  0.000000  0.428571  0.000000      2.000000
  0.285714  0.142857  0.000000      2.000000
  0.142857  0.285714  0.000000      2.000000
 -0.142857  0.142857  0.000000      2.000000
  0.428571  0.142857  0.000000      2.000000
  0.285714  0.428571  0.000000      2.000000
 -0.142857  0.285714  0.000000      2.000000
  0.285714 -0.142857  0.000000      2.000000
 -0.142857 -0.428571  0.000000      2.000000
 -0.428571 -0.285714  0.000000      2.000000
 -0.428571  0.142857  0.000000      2.000000
  0.428571 -0.428571  0.000000      2.000000
 -0.142857  0.428571  0.000000      2.000000
 -0.428571  0.285714  0.000000      2.000000
  0.285714 -0.428571  0.000000      2.000000
 -0.285714  0.285714  0.000000      2.000000
 
 Following cartesian coordinates:
            Coordinates               Weight
  0.000000  0.000000  0.000000      1.000000
  0.009317 -0.005379  0.000000      2.000000
  0.009317  0.005379  0.000000      2.000000
  0.000000  0.010758  0.000000      2.000000
  0.018634 -0.010758  0.000000      2.000000
  0.018634  0.010758  0.000000      2.000000
  0.000000  0.021517  0.000000      2.000000
  0.027951 -0.016137  0.000000      2.000000
  0.027951  0.016137  0.000000      2.000000
  0.000000  0.032275  0.000000      2.000000
  0.018634 -0.000000  0.000000      2.000000
  0.009317  0.016137  0.000000      2.000000
 -0.009317  0.016137  0.000000      2.000000
  0.027951 -0.005379  0.000000      2.000000
  0.018634  0.021517  0.000000      2.000000
 -0.009317  0.026896  0.000000      2.000000
  0.018634 -0.021517  0.000000      2.000000
 -0.009317 -0.026896  0.000000      2.000000
 -0.027951 -0.005379  0.000000      2.000000
 -0.027951  0.026896  0.000000      2.000000
  0.027951 -0.048412  0.000000      2.000000
 -0.009317  0.037654  0.000000      2.000000
 -0.027951  0.037654  0.000000      2.000000
  0.018634 -0.043033  0.000000      2.000000
 -0.018634  0.032275  0.000000      2.000000
 


--------------------------------------------------------------------------------------------------------




 Dimension of arrays:
   k-points           NKPTS =     25   k-points in BZ     NKDIM =     25   number of bands    NBANDS=    640
   number of dos      NEDOS =   4001   number of ions     NIONS =    255
   non local maximal  LDIM  =      6   non local SUM 2l+1 LMDIM =     18
   total plane-waves  NPLWV = ******
   max r-space proj   IRMAX =      1   max aug-charges    IRDMAX=  29795
   dimension x,y,z NGX =   120 NGY =  120 NGZ =  320
   dimension x,y,z NGXF=   240 NGYF=  240 NGZF=  640
   support grid    NGXF=   240 NGYF=  240 NGZF=  640
   ions per type =              14   9   2  37 192   1
   NGX,Y,Z   is equivalent  to a cutoff of  13.01, 13.01, 12.80 a.u.
   NGXF,Y,Z  is equivalent  to a cutoff of  26.02, 26.02, 25.60 a.u.

 SYSTEM =  Si_surface_6layer                       
 POSCAR =  4x4_si_surface_from540eV_1x1x1conv      

 Startparameter for this run:
   NWRITE =      2    write-flag & timer
   PREC   = accura    normal or accurate (medium, high low for compatibility)
   ISTART =      0    job   : 0-new  1-cont  2-samecut
   ICHARG =      1    charge: 1-file 2-atom 10-const
   ISPIN  =      2    spin polarized calculation?
   LNONCOLLINEAR =      F non collinear calculations
   LSORBIT =      F    spin-orbit coupling
   INIWAV =      1    electr: 0-lowe 1-rand  2-diag
   LASPH  =      F    aspherical Exc in radial PAW
 Electronic Relaxation 1
   ENCUT  =  540.0 eV  39.69 Ry    6.30 a.u.  29.05 29.05 78.74*2*pi/ulx,y,z
   ENINI  =  540.0     initial cutoff
   ENAUG  =  644.9 eV  augmentation charge cutoff
   NELM   =     60;   NELMIN=  5; NELMDL=  0     # of ELM steps 
   EDIFF  = 0.1E-06   stopping-criterion for ELM
   LREAL  =      F    real-space projection
   NLSPLINE    = F    spline interpolate recip. space projectors
   LCOMPAT=      F    compatible to vasp.4.4
   GGA_COMPAT  = T    GGA compatible to vasp.4.4-vasp.4.6
   LMAXPAW     = -100 max onsite density
   LMAXMIX     =    2 max onsite mixed and CHGCAR
   VOSKOWN=      0    Vosko Wilk Nusair interpolation
   ROPT   =    0.00000   0.00000   0.00000   0.00000
   ROPT   =    0.00000   0.00000
 Ionic relaxation
   EDIFFG = -.9E-02   stopping-criterion for IOM
   NSW    =      0    number of steps for IOM
   NBLOCK =      1;   KBLOCK =      1    inner block; outer block 
   IBRION =     -1    ionic relax: 0-MD 1-quasi-New 2-CG
   NFREE  =      0    steps in history (QN), initial steepest desc. (CG)
   ISIF   =      2    stress and relaxation
   IWAVPR =     10    prediction:  0-non 1-charg 2-wave 3-comb
   ISYM   =      0    0-nonsym 1-usesym 2-fastsym
   LCORR  =      T    Harris-Foulkes like correction to forces

   POTIM  = 0.5000    time-step for ionic-motion
   TEIN   =    0.0    initial temperature
   TEBEG  =    0.0;   TEEND  =   0.0 temperature during run
   SMASS  =  -3.00    Nose mass-parameter (am)
   estimated Nose-frequenzy (Omega)   =  0.10E-29 period in steps = 0.13E+47 mass=  -0.537E-26a.u.
   SCALEE = 1.0000    scale energy and forces
   NPACO  =    256;   APACO  = 10.0  distance and # of slots for P.C.
   PSTRESS=    0.0 pullay stress

  Mass of Ions in am
   POMASS =  12.01  1.00 12.01  1.00 28.09 72.61
  Ionic Valenz
   ZVAL   =   4.00  1.00  4.00  1.00  4.00  4.00
  Atomic Wigner-Seitz radii
   RWIGS  =  -1.00 -1.00 -1.00 -1.00 -1.00 -1.00
  virtual crystal weights 
   VCA    =   1.00  1.00  1.00  1.00  1.00  1.00
   NELECT =     882.0000    total number of electrons
   NUPDOWN=       2.0000    fix difference up-down

 DOS related values:
   EMIN   =  -5.00;   EMAX   =  3.00  energy-range for DOS
   EFERMI =   0.00
   ISMEAR =    -5;   SIGMA  =   0.05  broadening in eV -4-tet -1-fermi 0-gaus

 Electronic relaxation 2 (details)
   IALGO  =     38    algorithm
   LDIAG  =      T    sub-space diagonalisation (order eigenvalues)
   LSUBROT=      F    optimize rotation matrix (better conditioning)
   TURBO    =      0    0=normal 1=particle mesh
   IRESTART =      0    0=no restart 2=restart with 2 vectors
   NREBOOT  =      0    no. of reboots
   NMIN     =      0    reboot dimension
   EREF     =   0.00    reference energy to select bands
   IMIX   =      4    mixing-type and parameters
     AMIX     =   0.40;   BMIX     =  1.00
     AMIX_MAG =   1.60;   BMIX_MAG =  1.00
     AMIN     =   0.10
     WC   =   100.;   INIMIX=   1;  MIXPRE=   1;  MAXMIX= -45

 Intra band minimization:
   WEIMIN = 0.0000     energy-eigenvalue tresh-hold
   EBREAK =  0.39E-10  absolut break condition
   DEPER  =   0.30     relativ break condition  

   TIME   =   0.40     timestep for ELM

  volume/ion in A,a.u.               =      33.18       223.92
  Fermi-wavevector in a.u.,A,eV,Ry     =   0.770462  1.455963  8.076585  0.593612
  Thomas-Fermi vector in A             =   1.871671
 
 Write flags
   LWAVE        =      F    write WAVECAR
   LDOWNSAMPLE  =      F    k-point downsampling of WAVECAR
   LCHARG       =      F    write CHGCAR
   LVTOT        =      F    write LOCPOT, total local potential
   LVHAR        =      F    write LOCPOT, Hartree potential only
   LELF         =      F    write electronic localiz. function (ELF)
   LORBIT       =     11    0 simple, 1 ext, 2 COOP (PROOUT), +10 PAW based schemes


 Dipole corrections
   LMONO  =      F    monopole corrections only (constant potential shift)
   LDIPOL =      F    correct potential (dipole corrections)
   IDIPOL =      3    1-x, 2-y, 3-z, 4-all directions 
   EPSILON=  1.0000000 bulk dielectric constant

 Exchange correlation treatment:
   GGA     =    --    GGA type
   LEXCH   =     8    internal setting for exchange type
   LIBXC   =     F    Libxc                    
   VOSKOWN =     0    Vosko Wilk Nusair interpolation
   LHFCALC =     F    Hartree Fock is set to
   LHFONE  =     F    Hartree Fock one center treatment
   AEXX    =    0.0000 exact exchange contribution

 Linear response parameters
   LEPSILON=     F    determine dielectric tensor
   LRPA    =     F    only Hartree local field effects (RPA)
   LNABLA  =     F    use nabla operator in PAW spheres
   LVEL    =     F    velocity operator in full k-point grid
   CSHIFT  =0.1000    complex shift for real part using Kramers Kronig
   OMEGAMAX=  -1.0    maximum frequency
   DEG_THRESHOLD= 0.2000000E-02 threshold for treating states as degnerate
   RTIME   =   -0.100 relaxation time in fs
  (WPLASMAI=    0.000 imaginary part of plasma frequency in eV, 0.658/RTIME)
   DFIELD  = 0.0000000 0.0000000 0.0000000 field for delta impulse in time
 
  Optional k-point grid parameters
   LKPOINTS_OPT  =     F    use optional k-point grid
   KPOINTS_OPT_MODE=     1    mode for optional k-point grid
 
 Orbital magnetization related:
   ORBITALMAG=     F  switch on orbital magnetization
   LCHIMAG   =     F  perturbation theory with respect to B field
   DQ        =  0.001000  dq finite difference perturbation B field
   LLRAUG    =     F  two centre corrections for induced B field



--------------------------------------------------------------------------------------------------------


 Static calculation
 charge density and potential will be updated during run
 spin polarized calculation
 Variant of blocked Davidson
 Davidson routine will perform the subspace rotation
 perform sub-space diagonalisation
    after iterative eigenvector-optimisation
 modified Broyden-mixing scheme, WC =      100.0
[...]
   82        0.734   0.945   0.060   1.738
   83        0.734   0.945   0.060   1.738
   84        0.734   0.945   0.060   1.738
   85        0.734   0.945   0.060   1.738
   86        0.734   0.945   0.060   1.738
   87        0.734   0.945   0.060   1.738
   88        0.734   0.945   0.060   1.738
   89        0.734   0.945   0.060   1.738
   90        0.734   0.945   0.060   1.738
   91        0.734   0.945   0.060   1.738
   92        0.734   0.945   0.060   1.738
   93        0.734   0.945   0.060   1.738
   94        0.734   0.945   0.060   1.738
   95        0.737   0.931   0.062   1.729
   96        0.737   0.931   0.062   1.729
   97        0.737   0.931   0.062   1.729
   98        0.737   0.931   0.062   1.729
   99        0.737   0.931   0.062   1.729
  100        0.737   0.931   0.062   1.729
  101        0.737   0.931   0.062   1.729
  102        0.737   0.931   0.062   1.729
  103        0.737   0.930   0.062   1.729
  104        0.737   0.930   0.062   1.729
  105        0.737   0.931   0.062   1.729
  106        0.737   0.931   0.062   1.729
  107        0.737   0.930   0.062   1.729
  108        0.737   0.931   0.062   1.729
  109        0.737   0.931   0.062   1.729
  110        0.737   0.931   0.062   1.729
  111        0.738   0.930   0.062   1.730
  112        0.738   0.930   0.062   1.730
  113        0.738   0.930   0.062   1.730
  114        0.738   0.930   0.062   1.730
  115        0.738   0.930   0.062   1.730
  116        0.738   0.930   0.062   1.730
  117        0.738   0.930   0.062   1.730
  118        0.738   0.930   0.062   1.730
  119        0.738   0.930   0.062   1.730
  120        0.738   0.930   0.062   1.731
  121        0.738   0.930   0.062   1.730
  122        0.738   0.930   0.062   1.730
  123        0.738   0.930   0.062   1.730
  124        0.738   0.930   0.062   1.731
  125        0.738   0.930   0.062   1.730
  126        0.738   0.930   0.062   1.730
  127        0.739   0.930   0.062   1.731
  128        0.739   0.929   0.062   1.731
  129        0.739   0.929   0.062   1.730
  130        0.739   0.929   0.062   1.730
  131        0.739   0.929   0.062   1.731
  132        0.739   0.929   0.062   1.730
  133        0.739   0.929   0.062   1.730
  134        0.739   0.929   0.062   1.730
  135        0.739   0.930   0.063   1.731
  136        0.739   0.930   0.063   1.731
  137        0.739   0.929   0.062   1.731
  138        0.739   0.930   0.063   1.731
  139        0.739   0.930   0.062   1.731
  140        0.739   0.930   0.063   1.731
  141        0.739   0.929   0.062   1.731
  142        0.739   0.929   0.062   1.730
  143        0.739   0.929   0.062   1.731
  144        0.739   0.929   0.062   1.731
  145        0.739   0.929   0.063   1.731
  146        0.739   0.929   0.062   1.731
  147        0.739   0.929   0.063   1.731
  148        0.739   0.929   0.062   1.731
  149        0.739   0.930   0.063   1.731
  150        0.739   0.930   0.063   1.731
  151        0.739   0.929   0.062   1.730
  152        0.739   0.929   0.062   1.731
  153        0.739   0.929   0.062   1.730
  154        0.739   0.929   0.062   1.730
  155        0.739   0.929   0.062   1.731
  156        0.739   0.929   0.062   1.730
  157        0.739   0.929   0.062   1.730
  158        0.739   0.929   0.062   1.730
  159        0.739   0.929   0.062   1.731
  160        0.739   0.929   0.062   1.731
  161        0.739   0.930   0.062   1.731
  162        0.739   0.929   0.062   1.731
  163        0.739   0.930   0.063   1.731
  164        0.739   0.929   0.063   1.731
  165        0.739   0.930   0.063   1.731
  166        0.739   0.930   0.063   1.732
  167        0.739   0.929   0.062   1.730
  168        0.739   0.929   0.062   1.731
  169        0.739   0.929   0.062   1.730
  170        0.739   0.928   0.062   1.730
  171        0.739   0.929   0.062   1.731
  172        0.739   0.929   0.062   1.730
  173        0.739   0.929   0.062   1.730
  174        0.739   0.929   0.062   1.730
  175        0.739   0.928   0.062   1.728
  176        0.739   0.928   0.062   1.728
  177        0.739   0.929   0.062   1.730
  178        0.739   0.929   0.062   1.730
  179        0.739   0.928   0.062   1.728
  180        0.739   0.931   0.063   1.732
  181        0.739   0.930   0.063   1.731
  182        0.739   0.930   0.063   1.731
  183        0.739   0.928   0.062   1.728
  184        0.739   0.929   0.062   1.731
  185        0.739   0.931   0.063   1.732
  186        0.739   0.931   0.063   1.732
  187        0.739   0.928   0.062   1.728
  188        0.739   0.930   0.062   1.731
  189        0.739   0.931   0.063   1.732
  190        0.739   0.931   0.063   1.732
  191        0.739   0.926   0.062   1.727
  192        0.739   0.926   0.062   1.727
  193        0.739   0.928   0.062   1.728
  194        0.738   0.930   0.062   1.730
  195        0.739   0.927   0.062   1.727
  196        0.738   0.932   0.063   1.733
  197        0.738   0.931   0.062   1.731
  198        0.738   0.931   0.062   1.731
  199        0.739   0.927   0.062   1.727
  200        0.738   0.930   0.062   1.730
  201        0.738   0.933   0.063   1.734
  202        0.738   0.932   0.062   1.732
  203        0.738   0.927   0.062   1.727
  204        0.738   0.930   0.062   1.731
  205        0.738   0.932   0.062   1.733
  206        0.738   0.933   0.063   1.734
  207        0.737   0.932   0.062   1.731
  208        0.737   0.936   0.063   1.735
  209        0.737   0.931   0.062   1.730
  210        0.737   0.931   0.062   1.730
  211        0.737   0.932   0.062   1.731
  212        0.737   0.932   0.062   1.731
  213        0.737   0.925   0.061   1.724
  214        0.737   0.930   0.062   1.729
  215        0.737   0.932   0.062   1.731
  216        0.738   0.921   0.061   1.719
  217        0.737   0.933   0.063   1.732
  218        0.737   0.930   0.062   1.729
  219        0.738   0.921   0.060   1.719
  220        0.737   0.932   0.062   1.731
  221        0.737   0.933   0.062   1.732
  222        0.737   0.930   0.062   1.729
  223        0.734   0.946   0.060   1.740
  224        0.734   0.952   0.061   1.747
  225        0.734   0.946   0.060   1.739
  226        0.734   0.945   0.060   1.739
  227        0.734   0.947   0.060   1.741
  228        0.734   0.947   0.060   1.741
  229        0.735   0.935   0.060   1.730
  230        0.734   0.944   0.060   1.738
  231        0.734   0.947   0.060   1.741
  232        0.734   0.930   0.059   1.723
  233        0.734   0.948   0.060   1.742
  234        0.734   0.944   0.060   1.738
  235        0.734   0.930   0.059   1.723
  236        0.734   0.947   0.060   1.741
  237        0.734   0.948   0.060   1.742
  238        0.734   0.944   0.060   1.738
  239        0.728   0.951   0.071   1.751
  240        0.728   0.951   0.071   1.751
  241        0.728   0.951   0.072   1.751
  242        0.740   0.912   0.055   1.707
  243        0.728   0.952   0.072   1.752
  244        0.728   0.952   0.072   1.751
  245        0.729   0.951   0.072   1.753
  246        0.729   0.951   0.072   1.753
  247        0.728   0.952   0.072   1.752
  248        0.729   0.958   0.072   1.759
  249        0.728   0.951   0.071   1.751
  250        0.729   0.954   0.072   1.755
  251        0.728   0.952   0.072   1.752
  252        0.729   0.958   0.072   1.759
  253        0.729   0.954   0.072   1.755
  254        0.728   0.951   0.071   1.751
  255        1.046   1.293   0.129   2.468
--------------------------------------------------
tot        182.876 209.532  12.299 404.708



 magnetization (x)

# of ion       s       p       d       tot
------------------------------------------
    1        0.000   0.000   0.000   0.000
    2        0.000   0.000   0.000   0.000
    3        0.000   0.000   0.000   0.000
    4        0.000   0.000   0.000   0.000
    5        0.000   0.000   0.000   0.000
    6        0.000   0.000   0.000   0.000
    7        0.000   0.000   0.000   0.000
    8        0.000   0.000   0.000   0.000
    9        0.000   0.000   0.000   0.000
   10        0.000   0.000   0.000   0.000
   11        0.000   0.000   0.000   0.000
   12        0.000   0.000   0.000   0.000
   13        0.000   0.000   0.000   0.000
   14        0.000   0.000   0.000   0.000
   15        0.000   0.000   0.000   0.000
   16        0.000   0.000   0.000   0.000
   17       -0.000   0.000   0.000   0.000
   18        0.000   0.000   0.000   0.000
   19       -0.000   0.000   0.000   0.000
   20       -0.000   0.000   0.000   0.000
   21        0.000   0.000   0.000   0.000
   22        0.000   0.000   0.000   0.000
   23        0.000   0.000   0.000   0.000
   24        0.000   0.000   0.000   0.000
   25        0.000   0.000   0.000   0.000
   26        0.000   0.000  -0.000   0.000
   27        0.000   0.000   0.000   0.000
   28       -0.000   0.000   0.000   0.000
   29        0.000   0.000  -0.000   0.000
   30        0.000   0.000   0.000   0.000
   31        0.000   0.000   0.000   0.000
   32       -0.000   0.000  -0.000   0.000
   33       -0.000   0.000  -0.000   0.000
   34       -0.000   0.000  -0.000  -0.000
   35       -0.000   0.000  -0.000   0.000
   36       -0.000   0.000  -0.000   0.000
   37       -0.000   0.000  -0.000  -0.000
   38       -0.000   0.000  -0.000  -0.000
   39       -0.000   0.000  -0.000  -0.000
   40       -0.000   0.000  -0.000   0.000
   41       -0.000   0.000  -0.000   0.000
   42       -0.000   0.000  -0.000  -0.000
   43       -0.000   0.000  -0.000   0.000
   44       -0.000   0.000  -0.000   0.000
   45       -0.000   0.000  -0.000   0.000
   46       -0.000   0.000  -0.000   0.000
   47       -0.000   0.000  -0.000  -0.000
   48       -0.000   0.000  -0.000   0.000
   49       -0.000   0.000  -0.000   0.000
   50       -0.000   0.000  -0.000   0.000
   51       -0.000   0.000  -0.000   0.000
   52       -0.000   0.000  -0.000  -0.000
   53       -0.000   0.000  -0.000   0.000
   54       -0.000   0.000  -0.000   0.000
   55       -0.000   0.000  -0.000   0.000
   56       -0.000   0.000  -0.000   0.000
   57       -0.000   0.000  -0.000  -0.000
   58       -0.000   0.000  -0.000   0.000
   59       -0.000   0.000  -0.000  -0.000
   60       -0.000   0.000  -0.000  -0.000
   61       -0.000   0.000  -0.000   0.000
   62       -0.000   0.000  -0.000  -0.000
   63        0.000   0.002   0.000   0.002
   64        0.000   0.002   0.000   0.002
   65        0.000   0.002   0.000   0.002
   66        0.000   0.002   0.000   0.002
   67        0.000   0.002   0.000   0.002
   68        0.000   0.002   0.000   0.002
   69        0.000   0.002   0.000   0.002
   70        0.000   0.002   0.000   0.002
   71        0.000   0.002   0.000   0.002
   72        0.000   0.002   0.000   0.002
   73        0.000   0.002   0.000   0.002
   74        0.000   0.002   0.000   0.002
   75        0.000   0.002   0.000   0.002
   76        0.000   0.002   0.000   0.002
   77        0.000   0.002   0.000   0.002
   78        0.000   0.002   0.000   0.002
   79        0.000   0.001   0.000   0.002
   80        0.000   0.001   0.000   0.002
   81        0.000   0.001   0.000   0.002
   82        0.000   0.001   0.000   0.002
   83        0.000   0.001   0.000   0.002
   84        0.000   0.001   0.000   0.002
   85        0.000   0.001   0.000   0.002
   86        0.000   0.001   0.000   0.002
   87        0.000   0.001   0.000   0.002
   88        0.000   0.001   0.000   0.002
   89        0.000   0.001   0.000   0.002
   90        0.000   0.001   0.000   0.002
   91        0.000   0.001   0.000   0.002
   92        0.000   0.001   0.000   0.002
   93        0.000   0.001   0.000   0.002
   94        0.000   0.001   0.000   0.002
   95        0.000   0.003   0.001   0.004
   96        0.000   0.003   0.001   0.004
   97        0.000   0.003   0.001   0.004
   98        0.000   0.003   0.001   0.004
   99        0.000   0.003   0.001   0.004
  100        0.000   0.003   0.001   0.004
  101        0.000   0.003   0.001   0.004
  102        0.000   0.003   0.001   0.004
  103        0.000   0.003   0.001   0.004
  104        0.000   0.003   0.001   0.004
  105        0.000   0.003   0.001   0.004
  106        0.000   0.003   0.001   0.004
  107        0.000   0.003   0.001   0.004
  108        0.000   0.003   0.001   0.004
  109        0.000   0.003   0.001   0.004
  110        0.000   0.003   0.001   0.004
  111        0.001   0.002   0.001   0.004
  112        0.001   0.002   0.001   0.004
  113        0.001   0.002   0.001   0.004
  114        0.001   0.002   0.001   0.004
  115        0.001   0.002   0.001   0.004
  116        0.001   0.002   0.001   0.004
  117        0.001   0.002   0.001   0.004
  118        0.001   0.002   0.001   0.004
  119        0.001   0.002   0.001   0.004
  120        0.001   0.002   0.001   0.004
  121        0.001   0.002   0.001   0.004
  122        0.001   0.002   0.001   0.004
  123        0.001   0.002   0.001   0.004
  124        0.001   0.002   0.001   0.004
  125        0.001   0.002   0.001   0.004
  126        0.001   0.002   0.001   0.004
  127        0.001   0.004   0.001   0.006
  128        0.001   0.004   0.001   0.006
  129        0.001   0.004   0.001   0.006
  130        0.001   0.004   0.001   0.006
  131        0.001   0.004   0.001   0.006
  132        0.001   0.004   0.001   0.006
  133        0.001   0.004   0.001   0.006
  134        0.001   0.004   0.001   0.006
  135        0.001   0.004   0.001   0.006
  136        0.001   0.004   0.001   0.006
  137        0.001   0.004   0.001   0.006
  138        0.001   0.004   0.001   0.006
  139        0.001   0.004   0.001   0.006
  140        0.001   0.004   0.001   0.006
  141        0.001   0.004   0.001   0.006
  142        0.001   0.004   0.001   0.006
  143        0.001   0.003   0.001   0.005
  144        0.001   0.003   0.001   0.006
  145        0.001   0.003   0.001   0.005
  146        0.001   0.003   0.001   0.005
  147        0.001   0.003   0.001   0.006
  148        0.001   0.003   0.001   0.006
  149        0.001   0.003   0.001   0.005
  150        0.001   0.003   0.001   0.006
  151        0.001   0.003   0.001   0.006
  152        0.001   0.003   0.001   0.005
  153        0.001   0.003   0.001   0.005
  154        0.001   0.003   0.001   0.006
  155        0.001   0.003   0.001   0.005
  156        0.001   0.003   0.001   0.006
  157        0.001   0.003   0.001   0.005
  158        0.001   0.003   0.001   0.006
  159        0.001   0.003   0.001   0.006
  160        0.001   0.004   0.001   0.006
  161        0.001   0.004   0.001   0.006
  162        0.001   0.004   0.001   0.006
  163        0.001   0.003   0.001   0.006
  164        0.001   0.003   0.001   0.006
  165        0.001   0.003   0.001   0.005
  166        0.001   0.003   0.001   0.006
  167        0.001   0.003   0.001   0.006
  168        0.001   0.004   0.001   0.006
  169        0.001   0.003   0.001   0.005
  170        0.001   0.003   0.001   0.006
  171        0.001   0.003   0.001   0.005
  172        0.001   0.003   0.001   0.006
  173        0.001   0.003   0.001   0.005
  174        0.001   0.003   0.001   0.005
  175        0.001   0.004   0.001   0.006
  176        0.001   0.004   0.001   0.006
  177        0.001   0.004   0.001   0.006
  178        0.001   0.004   0.001   0.006
  179        0.001   0.004   0.001   0.006
  180        0.001   0.004   0.001   0.006
  181        0.001   0.004   0.001   0.006
  182        0.001   0.004   0.001   0.006
  183        0.001   0.004   0.001   0.006
  184        0.001   0.004   0.001   0.006
  185        0.001   0.004   0.001   0.006
  186        0.001   0.004   0.001   0.006
  187        0.001   0.004   0.001   0.006
  188        0.001   0.004   0.001   0.006
  189        0.001   0.004   0.001   0.006
  190        0.001   0.004   0.001   0.006
  191        0.001   0.002   0.001   0.004
  192        0.001   0.002   0.001   0.004
  193        0.001   0.002   0.001   0.004
  194        0.001   0.002   0.001   0.004
  195        0.001   0.002   0.001   0.004
  196        0.001   0.002   0.001   0.004
  197        0.001   0.002   0.001   0.004
  198        0.001   0.002   0.001   0.004
  199        0.001   0.002   0.001   0.004
  200        0.001   0.002   0.001   0.004
  201        0.001   0.002   0.001   0.004
  202        0.001   0.002   0.001   0.004
  203        0.001   0.002   0.001   0.004
  204        0.001   0.002   0.001   0.004
  205        0.001   0.002   0.001   0.004
  206        0.001   0.002   0.001   0.004
  207        0.000   0.003   0.001   0.004
  208        0.000   0.003   0.001   0.004
  209        0.000   0.003   0.001   0.004
  210        0.000   0.003   0.001   0.004
  211        0.000   0.003   0.001   0.004
  212        0.000   0.003   0.001   0.004
  213        0.000   0.003   0.001   0.004
  214        0.000   0.003   0.001   0.004
  215        0.000   0.003   0.001   0.004
  216        0.000   0.003   0.001   0.004
  217        0.000   0.003   0.001   0.004
  218        0.000   0.003   0.001   0.004
  219        0.000   0.003   0.001   0.004
  220        0.000   0.003   0.001   0.004
  221        0.000   0.003   0.001   0.004
  222        0.000   0.003   0.001   0.004
  223        0.000   0.001   0.000   0.002
  224        0.000   0.001   0.000   0.002
  225        0.000   0.001   0.000   0.002
  226        0.000   0.001   0.000   0.002
  227        0.000   0.001   0.000   0.002
  228        0.000   0.001   0.000   0.002
  229        0.000   0.001   0.000   0.002
  230        0.000   0.001   0.000   0.002
  231        0.000   0.001   0.000   0.002
  232        0.000   0.001   0.000   0.002
  233        0.000   0.001   0.000   0.002
  234        0.000   0.001   0.000   0.002
  235        0.000   0.001   0.000   0.002
  236        0.000   0.001   0.000   0.002
  237        0.000   0.001   0.000   0.002
  238        0.000   0.001   0.000   0.002
  239        0.000   0.002   0.000   0.002
  240        0.000   0.002   0.000   0.002
  241        0.000   0.002   0.000   0.002
  242        0.000   0.002   0.000   0.002
  243        0.000   0.002   0.000   0.002
  244        0.000   0.002   0.000   0.003
  245        0.000   0.002   0.000   0.002
  246        0.000   0.002   0.000   0.002
  247        0.000   0.002   0.000   0.002
  248        0.000   0.002   0.000   0.002
  249        0.000   0.002   0.000   0.002
  250        0.000   0.002   0.000   0.002
  251        0.000   0.002   0.000   0.002
  252        0.000   0.002   0.000   0.003
  253        0.000   0.002   0.000   0.002
  254        0.000   0.002   0.000   0.002
  255        0.000   0.000   0.000   0.000
--------------------------------------------------
tot          0.101   0.509   0.147   0.757
 
 BZINTS: Fermi energy:    1.106557;  884.000000 electrons
         Band energy:-0.446776E+04;  BLOECHL correction:   -0.021676
 BZINTS: Fermi energy:   -0.031677;  880.000000 electrons
         Band energy:-0.446171E+04;  BLOECHL correction:   -0.014127

 total amount of memory used by VASP MPI-rank0   867963. kBytes
=======================================================================

   base      :      30000. kBytes
   nonl-proj :     387768. kBytes
   fftplans  :      14114. kBytes
   grid      :      41856. kBytes
   one-center:        497. kBytes
   wavefun   :     393728. kBytes
 
  
  
 General timing and accounting informations for this job:
 ========================================================
  
                  Total CPU time used (sec):    36826.922
                            User time (sec):    36749.101
                          System time (sec):       77.819
                         Elapsed time (sec):    37285.114
  
                   Maximum memory used (kb):     1920312.
                   Average memory used (kb):          N/A
  
                          Minor page faults:      5571807
                          Major page faults:           56
                 Voluntary context switches:       321071
