<?xml version="1.0" encoding="ISO-8859-1"?>
<modeling>
 <generator>
  <i name="program" type="string">vasp </i>
  <i name="version" type="string">6.3.2  </i>
  <i name="subversion" type="string">27Jun22 (build Oct 28 2022 14:47:18) complex                          parallel </i>
  <i name="platform" type="string">LinuxIFC </i>
  <i name="date" type="string">2023 05 10 </i>
  <i name="time" type="string">20:35:53 </i>
 </generator>
 <incar>
  <i type="string" name="SYSTEM">Si_surface_6layer</i>
  <i type="string" name="PREC">Accurate</i>
  <i type="int" name="NELMIN">     5</i>
  <i type="int" name="IBRION">     0</i>
  <i name="EDIFF">      0.00010000</i>
  <i name="EDIFFG">     -0.00950000</i>
  <i type="int" name="NSW">   100</i>
  <i type="int" name="ISIF">     2</i>
  <i type="int" name="ISYM">     0</i>
  <i name="ENCUT">    540.00000000</i>
  <i type="int" name="NBANDS">   640</i>
  <i name="POTIM">      1.00000000</i>
  <i name="TEBEG">    300.00000000</i>
  <i name="SMASS">     -1.00000000</i>
  <i type="int" name="ISMEAR">     0</i>
  <i name="SIGMA">      0.01000000</i>
  <i type="int" name="NWRITE">     1</i>
  <i type="int" name="IDIPOL">     3</i>
  <i type="int" name="IVDW">    12</i>
  <i type="int" name="MDALGO">     2</i>
 </incar>
 <primitive_cell>
  <structure name="primitive_cell" >
   <crystal>
    <varray name="basis" >
     <v>      15.33298779       0.00000000       0.00000000 </v>
     <v>       7.66649389      13.27875694       0.00000000 </v>
     <v>       0.00000000       0.00000000      41.55799484 </v>
    </varray>
    <i name="volume">   8461.33316923 </i>
    <varray name="rec_basis" >
     <v>       0.06521886      -0.03765413       0.00000000 </v>
     <v>       0.00000000       0.07530825       0.00000000 </v>
     <v>       0.00000000       0.00000000       0.02406276 </v>
    </varray>
   </crystal>
   <varray name="positions" >
    <v>       0.62368388       0.43078066       0.56225688 </v>
    <v>       0.57203952       0.38469787       0.55170913 </v>
    <v>       0.62606916       0.50694124       0.54554600 </v>
    <v>       0.51316775       0.41682225       0.52121963 </v>
    <v>       0.51397551       0.49652815       0.50334594 </v>
    <v>       0.57005066       0.54263049       0.51652541 </v>
    <v>       0.68334244       0.54615094       0.55918168 </v>
    <v>       0.68789536       0.62286716       0.54370445 </v>
    <v>       0.63334614       0.66258883       0.51451568 </v>
    <v>       0.57727343       0.62408218       0.50270685 </v>
    <v>       0.57694462       0.30634727       0.57008261 </v>
    <v>       0.52709528       0.25943254       0.55966589 </v>
    <v>       0.47475499       0.28131211       0.52860323 </v>
    <v>       0.46111177       0.36299881       0.51091086 </v>
    <v>       0.63569704       0.27765068       0.58835358 </v>
    <v>       0.52772111       0.19820706       0.57227670 </v>
    <v>       0.42862982       0.24786790       0.52335457 </v>
    <v>       0.40774504       0.38800145       0.49137062 </v>
    <v>       0.66564498       0.39736874       0.58476695 </v>
    <v>       0.52599786       0.66324119       0.48368142 </v>
    <v>       0.62253716       0.73416404       0.50528161 </v>
    <v>       0.72519907       0.50902494       0.58154989 </v>
    <v>       0.72761784       0.65432256       0.55547589 </v>
    <v>       0.00475372       0.99110682       0.02034641 </v>
    <v>       0.49944576       0.00009049       0.02036861 </v>
    <v>       0.01482054       0.48339009       0.02038713 </v>
    <v>       0.50412297       0.50195716       0.02001535 </v>
    <v>       0.26392941       0.98507024       0.02084807 </v>
    <v>       0.74121162       0.01255737       0.02066822 </v>
    <v>       0.26082045       0.49694991       0.02195101 </v>
    <v>       0.76114704       0.51149279       0.01845114 </v>
    <v>       0.00846095       0.24672097       0.01929158 </v>
    <v>       0.50529457       0.24001545       0.02315778 </v>
    <v>       0.98487639       0.74725881       0.02354265 </v>
    <v>       0.52135251       0.74897685       0.02275181 </v>
    <v>       0.26729850       0.23303087       0.02065602 </v>
    <v>       0.75481660       0.25841961       0.01711416 </v>
    <v>       0.24488211       0.75482129       0.02193095 </v>
    <v>       0.76459153       0.74140065       0.02045219 </v>
    <v>       0.00371220       0.00095645       0.48641281 </v>
    <v>       0.48014829       0.00308930       0.48464514 </v>
    <v>       0.01978196       0.48598499       0.48614006 </v>
    <v>       0.26678518       0.99893575       0.48506444 </v>
    <v>       0.73879586       0.01509056       0.48461470 </v>
    <v>       0.26679012       0.48990548       0.48306913 </v>
    <v>       0.77711329       0.50336184       0.48373143 </v>
    <v>       0.99826817       0.25159521       0.48720650 </v>
    <v>       0.52766524       0.22324195       0.47663915 </v>
    <v>       0.00722976       0.74307054       0.48557779 </v>
    <v>       0.48015783       0.80715775       0.47821239 </v>
    <v>       0.26252922       0.25620575       0.48644566 </v>
    <v>       0.75195066       0.23540614       0.48676669 </v>
    <v>       0.24723327       0.75051953       0.48213975 </v>
    <v>       0.74546549       0.75887500       0.48750690 </v>
    <v>       0.00039291       0.99149560       0.05660701 </v>
    <v>       0.50147052       0.99954765       0.05585688 </v>
    <v>       0.00452499       0.49295936       0.05662966 </v>
    <v>       0.50068361       0.50402626       0.05638935 </v>
    <v>       0.25555042       0.99662903       0.05677369 </v>
    <v>       0.74434806       0.00394254       0.05685101 </v>
    <v>       0.25139457       0.50254406       0.05756832 </v>
    <v>       0.76291985       0.49810771       0.05481035 </v>
    <v>       0.01024169       0.23841018       0.05554336 </v>
    <v>       0.49951230       0.25272841       0.05940489 </v>
    <v>       0.99304185       0.74941101       0.05898774 </v>
    <v>       0.50709943       0.74922007       0.05822546 </v>
    <v>       0.25662207       0.24522633       0.05720130 </v>
    <v>       0.75161196       0.25064162       0.05372235 </v>
    <v>       0.25033167       0.75133167       0.05681835 </v>
    <v>       0.75423464       0.74790023       0.05651722 </v>
    <v>       0.82526196       0.83904704       0.07686405 </v>
    <v>       0.33681374       0.83033824       0.07550497 </v>
    <v>       0.83846706       0.33499207       0.07302241 </v>
    <v>       0.33487344       0.33275575       0.07601410 </v>
    <v>       0.08449239       0.82489620       0.07537685 </v>
    <v>       0.58956133       0.83415062       0.07594622 </v>
    <v>       0.08912381       0.32639243       0.07448286 </v>
    <v>       0.58476919       0.33899539       0.07374752 </v>
    <v>       0.83130091       0.08682243       0.07424955 </v>
    <v>       0.33850530       0.08148250       0.07653014 </v>
    <v>       0.83868758       0.58489261       0.07555432 </v>
    <v>       0.33359825       0.58946438       0.07607505 </v>
    <v>       0.08591819       0.07481720       0.07286127 </v>
    <v>       0.58187056       0.08500740       0.07593422 </v>
    <v>       0.08472361       0.58051877       0.07571506 </v>
    <v>       0.59211430       0.57840735       0.07353929 </v>
    <v>       0.83214706       0.83958544       0.13204564 </v>
    <v>       0.32967248       0.82837555       0.13206854 </v>
    <v>       0.83709448       0.33405664       0.12935593 </v>
    <v>       0.33102426       0.32891391       0.13203926 </v>
    <v>       0.08097324       0.83064130       0.13142117 </v>
    <v>       0.58646454       0.83840655       0.13289325 </v>
    <v>       0.08733752       0.32984807       0.13023342 </v>
    <v>       0.57975361       0.34338069       0.13037621 </v>
    <v>       0.82976956       0.08768063       0.13135052 </v>
    <v>       0.33977979       0.07941976       0.13321353 </v>
    <v>       0.83628208       0.57664359       0.13181260 </v>
    <v>       0.33017910       0.58493614       0.13326314 </v>
    <v>       0.08934982       0.07621506       0.12943333 </v>
    <v>       0.57877798       0.08869668       0.13195922 </v>
    <v>       0.08493925       0.58073211       0.13171247 </v>
    <v>       0.58112209       0.58468162       0.13130256 </v>
    <v>       0.66942250       0.66740178       0.15015368 </v>
    <v>       0.16213210       0.66821583       0.15229745 </v>
    <v>       0.66264297       0.17584146       0.15142391 </v>
    <v>       0.16663247       0.16436139       0.15066692 </v>
    <v>       0.92038493       0.66250962       0.15032589 </v>
    <v>       0.41956637       0.66027997       0.14981111 </v>
    <v>       0.91692371       0.16908006       0.14910625 </v>
    <v>       0.41627197       0.16635467       0.15135035 </v>
    <v>       0.66568398       0.92635614       0.15055576 </v>
    <v>       0.16440539       0.91497342       0.15069451 </v>
    <v>       0.66757480       0.41893753       0.14997912 </v>
    <v>       0.16987580       0.40917141       0.15060511 </v>
    <v>       0.91724707       0.91857428       0.15025313 </v>
    <v>       0.41516836       0.91313556       0.15000138 </v>
    <v>       0.92211330       0.41245223       0.15053823 </v>
    <v>       0.41229587       0.41864071       0.14897209 </v>
    <v>       0.66691256       0.66650248       0.20705400 </v>
    <v>       0.16691388       0.66649014       0.20705898 </v>
    <v>       0.66690344       0.16650572       0.20706598 </v>
    <v>       0.16684061       0.16660814       0.20708179 </v>
    <v>       0.91692531       0.66649854       0.20705917 </v>
    <v>       0.41692519       0.66647869       0.20706536 </v>
    <v>       0.91692513       0.16650243       0.20707472 </v>
    <v>       0.41696414       0.16651435       0.20706744 </v>
    <v>       0.66691798       0.91648233       0.20704252 </v>
    <v>       0.16694951       0.91644073       0.20704633 </v>
    <v>       0.66691595       0.41648963       0.20705459 </v>
    <v>       0.16692059       0.41647589       0.20705572 </v>
    <v>       0.91694874       0.91646326       0.20705239 </v>
    <v>       0.41701031       0.91640425       0.20704821 </v>
    <v>       0.91693836       0.41649175       0.20706075 </v>
    <v>       0.41692036       0.41647944       0.20706344 </v>
    <v>       0.50027961       0.49979386       0.22588077 </v>
    <v>       0.00028667       0.49982324       0.22588116 </v>
    <v>       0.50028664       0.99980050       0.22585523 </v>
    <v>       0.00032078       0.99976605       0.22586109 </v>
    <v>       0.75028151       0.49981755       0.22585414 </v>
    <v>       0.25025454       0.49979892       0.22586794 </v>
    <v>       0.75028825       0.99977207       0.22584361 </v>
    <v>       0.25032210       0.99981099       0.22577891 </v>
    <v>       0.50031888       0.74973106       0.22591361 </v>
    <v>       0.00028389       0.74979836       0.22589213 </v>
    <v>       0.50029421       0.24984773       0.22593303 </v>
    <v>       0.00016690       0.24989246       0.22594903 </v>
    <v>       0.75026935       0.74982309       0.22586657 </v>
    <v>       0.25028658       0.74977243       0.22589330 </v>
    <v>       0.75025457       0.24982803       0.22588788 </v>
    <v>       0.25034884       0.24982284       0.22589789 </v>
    <v>       0.50049311       0.49963021       0.28230625 </v>
    <v>       0.00050731       0.49968964       0.28230852 </v>
    <v>       0.50051337       0.99962586       0.28226966 </v>
    <v>       0.00059072       0.99956340       0.28227770 </v>
    <v>       0.75046229       0.49970725       0.28226706 </v>
    <v>       0.25044429       0.49965557       0.28228563 </v>
    <v>       0.75051129       0.99957675       0.28225109 </v>
    <v>       0.25060219       0.99960679       0.28215271 </v>
    <v>       0.50056702       0.74950278       0.28235546 </v>
    <v>       0.00050130       0.74963838       0.28232342 </v>
    <v>       0.50053847       0.24974354       0.28238246 </v>
    <v>       0.00022542       0.24985044       0.28240287 </v>
    <v>       0.75046211       0.74969256       0.28228703 </v>
    <v>       0.25051790       0.74957991       0.28232458 </v>
    <v>       0.75041085       0.24970731       0.28231668 </v>
    <v>       0.25066370       0.24970363       0.28232852 </v>
    <v>       0.33391163       0.33313787       0.30122888 </v>
    <v>       0.83340478       0.33325410       0.30123815 </v>
    <v>       0.33380580       0.83306384       0.30105916 </v>
    <v>       0.83384037       0.83295310       0.30113372 </v>
    <v>       0.58387220       0.33310598       0.30124068 </v>
    <v>       0.08398666       0.33295631       0.30108732 </v>
    <v>       0.58382905       0.83298177       0.30112001 </v>
    <v>       0.08388577       0.83291119       0.30115694 </v>
    <v>       0.33384538       0.58284026       0.30112976 </v>
    <v>       0.83381855       0.58302647       0.30109686 </v>
    <v>       0.33384517       0.08289958       0.30104592 </v>
    <v>       0.83388197       0.08288339       0.30102268 </v>
    <v>       0.58398402       0.58273447       0.30118588 </v>
    <v>       0.08386202       0.58297580       0.30116987 </v>
    <v>       0.58390039       0.08290785       0.30108312 </v>
    <v>       0.08406826       0.08289581       0.30098030 </v>
    <v>       0.33302928       0.33434312       0.35839367 </v>
    <v>       0.83827918       0.33159923       0.35834557 </v>
    <v>       0.33415980       0.82951979       0.35573750 </v>
    <v>       0.83161762       0.83017343       0.35772918 </v>
    <v>       0.58759177       0.33755914       0.35683400 </v>
    <v>       0.08783739       0.33549848       0.35595150 </v>
    <v>       0.58646439       0.83291898       0.35602478 </v>
    <v>       0.07742054       0.83329414       0.35729678 </v>
    <v>       0.33633311       0.59180851       0.35619555 </v>
    <v>       0.83558152       0.58132795       0.35649672 </v>
    <v>       0.33110091       0.08789347       0.35487540 </v>
    <v>       0.83886235       0.07761839       0.35696410 </v>
    <v>       0.58463554       0.58204341       0.35691849 </v>
    <v>       0.08121396       0.57909910       0.35702627 </v>
    <v>       0.58403496       0.08136227       0.35644814 </v>
    <v>       0.09496470       0.07999375       0.35784037 </v>
    <v>       0.17306863       0.17641309       0.37458806 </v>
    <v>       0.66556420       0.16968520       0.37082833 </v>
    <v>       0.16996675       0.65572888       0.37331301 </v>
    <v>       0.67027754       0.66837620       0.37504233 </v>
    <v>       0.42047909       0.16503077       0.37324113 </v>
    <v>       0.92109988       0.16294570       0.37538514 </v>
    <v>       0.42318873       0.66653832       0.37823693 </v>
    <v>       0.91672257       0.66537543       0.37670658 </v>
    <v>       0.17126720       0.41327028       0.37439021 </v>
    <v>       0.67025354       0.41656564       0.37810583 </v>
    <v>       0.16648450       0.91320956       0.37437452 </v>
    <v>       0.66607090       0.91599317       0.37617058 </v>
    <v>       0.41937013       0.42408481       0.37460445 </v>
    <v>       0.92401165       0.41701767       0.37408978 </v>
    <v>       0.41442476       0.91525452       0.37143605 </v>
    <v>       0.91143148       0.91651127       0.37802339 </v>
    <v>       0.16711378       0.17438989       0.43265724 </v>
    <v>       0.67069049       0.16906502       0.42747409 </v>
    <v>       0.16212517       0.66576944       0.42837660 </v>
    <v>       0.66346069       0.67013166       0.43094096 </v>
    <v>       0.40736846       0.17094624       0.42862341 </v>
    <v>       0.91874971       0.17174397       0.43074112 </v>
    <v>       0.41402705       0.66357967       0.43323285 </v>
    <v>       0.92119715       0.65957818       0.43253927 </v>
    <v>       0.16713287       0.41713746       0.42946383 </v>
    <v>       0.66778136       0.41556452       0.43627947 </v>
    <v>       0.16268563       0.92371524       0.43053809 </v>
    <v>       0.66182284       0.92397306       0.43304981 </v>
    <v>       0.42060272       0.42412311       0.43164480 </v>
    <v>       0.92017900       0.41643015       0.42974026 </v>
    <v>       0.41675746       0.92304564       0.42548978 </v>
    <v>       0.91303189       0.91967810       0.43409461 </v>
    <v>       0.99567361       0.00482783       0.45016906 </v>
    <v>       0.49424271       0.00533547       0.44958213 </v>
    <v>       0.00504139       0.49384385       0.44947522 </v>
    <v>       0.50027978       0.50486412       0.45704182 </v>
    <v>       0.25752194       0.99952419       0.44883554 </v>
    <v>       0.74645429       0.00667316       0.44862428 </v>
    <v>       0.24259361       0.50097994       0.44659613 </v>
    <v>       0.75188578       0.50286610       0.44826457 </v>
    <v>       0.00373846       0.25725314       0.45084223 </v>
    <v>       0.50013734       0.25362247       0.44157359 </v>
    <v>       0.00122396       0.75100760       0.44954507 </v>
    <v>       0.49089226       0.75960690       0.44354064 </v>
    <v>       0.24944783       0.25560797       0.45032684 </v>
    <v>       0.75354933       0.24457856       0.44982411 </v>
    <v>       0.24291792       0.74986566       0.44612576 </v>
    <v>       0.74802523       0.75464233       0.45102831 </v>
   </varray>
  </structure>
  <varray name="primitive_index" >
   <v type="int" >        1 </v>
   <v type="int" >        2 </v>
   <v type="int" >        3 </v>
   <v type="int" >        4 </v>
   <v type="int" >        5 </v>
   <v type="int" >        6 </v>
   <v type="int" >        7 </v>
   <v type="int" >        8 </v>
   <v type="int" >        9 </v>
   <v type="int" >       10 </v>
   <v type="int" >       11 </v>
   <v type="int" >       12 </v>
   <v type="int" >       13 </v>
   <v type="int" >       14 </v>
   <v type="int" >       15 </v>
   <v type="int" >       16 </v>
   <v type="int" >       17 </v>
   <v type="int" >       18 </v>
   <v type="int" >       19 </v>
   <v type="int" >       20 </v>
   <v type="int" >       21 </v>
   <v type="int" >       22 </v>
   <v type="int" >       23 </v>
   <v type="int" >       24 </v>
   <v type="int" >       25 </v>
   <v type="int" >       26 </v>
   <v type="int" >       27 </v>
   <v type="int" >       28 </v>
   <v type="int" >       29 </v>
   <v type="int" >       30 </v>
   <v type="int" >       31 </v>
   <v type="int" >       32 </v>
   <v type="int" >       33 </v>
   <v type="int" >       34 </v>
   <v type="int" >       35 </v>
   <v type="int" >       36 </v>
   <v type="int" >       37 </v>
   <v type="int" >       38 </v>
   <v type="int" >       39 </v>
   <v type="int" >       40 </v>
   <v type="int" >       41 </v>
   <v type="int" >       42 </v>
   <v type="int" >       43 </v>
   <v type="int" >       44 </v>
   <v type="int" >       45 </v>
   <v type="int" >       46 </v>
   <v type="int" >       47 </v>
   <v type="int" >       48 </v>
   <v type="int" >       49 </v>
   <v type="int" >       50 </v>
   <v type="int" >       51 </v>
   <v type="int" >       52 </v>
   <v type="int" >       53 </v>
   <v type="int" >       54 </v>
   <v type="int" >       55 </v>
   <v type="int" >       56 </v>
   <v type="int" >       57 </v>
   <v type="int" >       58 </v>
   <v type="int" >       59 </v>
   <v type="int" >       60 </v>
   <v type="int" >       61 </v>
   <v type="int" >       62 </v>
   <v type="int" >       63 </v>
   <v type="int" >       64 </v>
   <v type="int" >       65 </v>
   <v type="int" >       66 </v>
   <v type="int" >       67 </v>
   <v type="int" >       68 </v>
   <v type="int" >       69 </v>
   <v type="int" >       70 </v>
   <v type="int" >       71 </v>
   <v type="int" >       72 </v>
   <v type="int" >       73 </v>
   <v type="int" >       74 </v>
   <v type="int" >       75 </v>
   <v type="int" >       76 </v>
   <v type="int" >       77 </v>
   <v type="int" >       78 </v>
   <v type="int" >       79 </v>
   <v type="int" >       80 </v>
   <v type="int" >       81 </v>
   <v type="int" >       82 </v>
   <v type="int" >       83 </v>
   <v type="int" >       84 </v>
   <v type="int" >       85 </v>
   <v type="int" >       86 </v>
   <v type="int" >       87 </v>
   <v type="int" >       88 </v>
   <v type="int" >       89 </v>
   <v type="int" >       90 </v>
   <v type="int" >       91 </v>
   <v type="int" >       92 </v>
   <v type="int" >       93 </v>
   <v type="int" >       94 </v>
   <v type="int" >       95 </v>
   <v type="int" >       96 </v>
   <v type="int" >       97 </v>
   <v type="int" >       98 </v>
   <v type="int" >       99 </v>
   <v type="int" >      100 </v>
   <v type="int" >      101 </v>
   <v type="int" >      102 </v>
   <v type="int" >      103 </v>
   <v type="int" >      104 </v>
   <v type="int" >      105 </v>
   <v type="int" >      106 </v>
   <v type="int" >      107 </v>
   <v type="int" >      108 </v>
   <v type="int" >      109 </v>
   <v type="int" >      110 </v>
   <v type="int" >      111 </v>
   <v type="int" >      112 </v>
   <v type="int" >      113 </v>
   <v type="int" >      114 </v>
   <v type="int" >      115 </v>
   <v type="int" >      116 </v>
   <v type="int" >      117 </v>
   <v type="int" >      118 </v>
   <v type="int" >      119 </v>
   <v type="int" >      120 </v>
   <v type="int" >      121 </v>
   <v type="int" >      122 </v>
   <v type="int" >      123 </v>
   <v type="int" >      124 </v>
   <v type="int" >      125 </v>
   <v type="int" >      126 </v>
   <v type="int" >      127 </v>
   <v type="int" >      128 </v>
   <v type="int" >      129 </v>
   <v type="int" >      130 </v>
   <v type="int" >      131 </v>
   <v type="int" >      132 </v>
   <v type="int" >      133 </v>
   <v type="int" >      134 </v>
   <v type="int" >      135 </v>
   <v type="int" >      136 </v>
   <v type="int" >      137 </v>
   <v type="int" >      138 </v>
   <v type="int" >      139 </v>
   <v type="int" >      140 </v>
   <v type="int" >      141 </v>
   <v type="int" >      142 </v>
   <v type="int" >      143 </v>
   <v type="int" >      144 </v>
   <v type="int" >      145 </v>
   <v type="int" >      146 </v>
   <v type="int" >      147 </v>
   <v type="int" >      148 </v>
   <v type="int" >      149 </v>
   <v type="int" >      150 </v>
   <v type="int" >      151 </v>
   <v type="int" >      152 </v>
   <v type="int" >      153 </v>
   <v type="int" >      154 </v>
   <v type="int" >      155 </v>
   <v type="int" >      156 </v>
   <v type="int" >      157 </v>
   <v type="int" >      158 </v>
   <v type="int" >      159 </v>
   <v type="int" >      160 </v>
   <v type="int" >      161 </v>
   <v type="int" >      162 </v>
   <v type="int" >      163 </v>
   <v type="int" >      164 </v>
   <v type="int" >      165 </v>
   <v type="int" >      166 </v>
   <v type="int" >      167 </v>
   <v type="int" >      168 </v>
   <v type="int" >      169 </v>
   <v type="int" >      170 </v>
   <v type="int" >      171 </v>
   <v type="int" >      172 </v>
   <v type="int" >      173 </v>
   <v type="int" >      174 </v>
   <v type="int" >      175 </v>
   <v type="int" >      176 </v>
   <v type="int" >      177 </v>
   <v type="int" >      178 </v>
   <v type="int" >      179 </v>
   <v type="int" >      180 </v>
   <v type="int" >      181 </v>
   <v type="int" >      182 </v>
   <v type="int" >      183 </v>
   <v type="int" >      184 </v>
   <v type="int" >      185 </v>
   <v type="int" >      186 </v>
   <v type="int" >      187 </v>
   <v type="int" >      188 </v>
   <v type="int" >      189 </v>
   <v type="int" >      190 </v>
   <v type="int" >      191 </v>
   <v type="int" >      192 </v>
   <v type="int" >      193 </v>
   <v type="int" >      194 </v>
   <v type="int" >      195 </v>
   <v type="int" >      196 </v>
   <v type="int" >      197 </v>
   <v type="int" >      198 </v>
   <v type="int" >      199 </v>
   <v type="int" >      200 </v>
   <v type="int" >      201 </v>
   <v type="int" >      202 </v>
   <v type="int" >      203 </v>
   <v type="int" >      204 </v>
   <v type="int" >      205 </v>
   <v type="int" >      206 </v>
   <v type="int" >      207 </v>
   <v type="int" >      208 </v>
   <v type="int" >      209 </v>
   <v type="int" >      210 </v>
   <v type="int" >      211 </v>
   <v type="int" >      212 </v>
   <v type="int" >      213 </v>
   <v type="int" >      214 </v>
   <v type="int" >      215 </v>
   <v type="int" >      216 </v>
   <v type="int" >      217 </v>
   <v type="int" >      218 </v>
   <v type="int" >      219 </v>
   <v type="int" >      220 </v>
   <v type="int" >      221 </v>
   <v type="int" >      222 </v>
   <v type="int" >      223 </v>
   <v type="int" >      224 </v>
   <v type="int" >      225 </v>
   <v type="int" >      226 </v>
   <v type="int" >      227 </v>
   <v type="int" >      228 </v>
   <v type="int" >      229 </v>
   <v type="int" >      230 </v>
   <v type="int" >      231 </v>
   <v type="int" >      232 </v>
   <v type="int" >      233 </v>
   <v type="int" >      234 </v>
   <v type="int" >      235 </v>
   <v type="int" >      236 </v>
   <v type="int" >      237 </v>
   <v type="int" >      238 </v>
   <v type="int" >      239 </v>
   <v type="int" >      240 </v>
   <v type="int" >      241 </v>
   <v type="int" >      242 </v>
   <v type="int" >      243 </v>
   <v type="int" >      244 </v>
   <v type="int" >      245 </v>
   <v type="int" >      246 </v>
  </varray>
 </primitive_cell>
 <kpoints>
  <generation param="Gamma">
   <v type="int" name="divisions">       3        3        1 </v>
   <v name="usershift">      0.00000000       0.00000000       0.00000000 </v>
   <v name="genvec1">      0.33333333       0.00000000       0.00000000 </v>
   <v name="genvec2">      0.00000000       0.33333333       0.00000000 </v>
   <v name="genvec3">      0.00000000       0.00000000       1.00000000 </v>
   <v name="shift">      0.00000000       0.00000000       0.00000000 </v>
  </generation>
  <varray name="kpointlist" >
   <v>       0.00000000       0.00000000       0.00000000 </v>
   <v>       0.33333333       0.00000000       0.00000000 </v>
   <v>       0.33333333       0.33333333       0.00000000 </v>
   <v>       0.00000000       0.33333333       0.00000000 </v>
   <v>      -0.33333333       0.33333333       0.00000000 </v>
  </varray>
  <varray name="weights" >
   <v>       0.11111111 </v>
   <v>       0.22222222 </v>
   <v>       0.22222222 </v>
   <v>       0.22222222 </v>
   <v>       0.22222222 </v>
  </varray>
 </kpoints>
 <parameters>
  <separator name="general" >
   <i type="string" name="SYSTEM">Si_surface_6layer</i>
   <i type="logical" name="LCOMPAT"> F  </i>
  </separator>
  <separator name="electronic" >
   <i type="string" name="PREC">accura</i>
   <i name="ENMAX">    540.00000000</i>
   <i name="ENAUG">    644.87300000</i>
   <i name="EDIFF">      0.00010000</i>
   <i type="int" name="IALGO">    38</i>
   <i type="int" name="IWAVPR">    12</i>
   <i type="int" name="NBANDS">   640</i>
   <i type="int" name="NBANDSLOW">    -1</i>
   <i type="int" name="NBANDSHIGH">    -1</i>
   <i name="NELECT">    864.00000000</i>
   <i type="int" name="TURBO">     0</i>
   <i type="int" name="IRESTART">     0</i>
   <i type="int" name="NREBOOT">     0</i>
   <i type="int" name="NMIN">     0</i>
   <i name="EREF">      0.00000000</i>
   <separator name="electronic smearing" >
    <i type="int" name="ISMEAR">     0</i>
    <i name="SIGMA">      0.01000000</i>
    <i name="KSPACING">      0.50000000</i>
    <i type="logical" name="KGAMMA"> T  </i>
    <i type="logical" name="KBLOWUP"> T  </i>
   </separator>
   <separator name="electronic projectors" >
    <i type="logical" name="LREAL"> F  </i>
    <v name="ROPT">      0.00000000      0.00000000      0.00000000      0.00000000</v>
    <i type="int" name="LMAXPAW">  -100</i>
    <i type="int" name="LMAXMIX">     2</i>
    <i type="logical" name="NLSPLINE"> F  </i>
   </separator>
   <separator name="electronic startup" >
    <i type="int" name="ISTART">     1</i>
    <i type="int" name="ICHARG">     0</i>
    <i type="int" name="INIWAV">     1</i>
   </separator>
   <separator name="electronic spin" >
    <i type="int" name="ISPIN">     1</i>
    <i type="logical" name="LNONCOLLINEAR"> F  </i>
    <v name="MAGMOM">      1.00000000      1.00000000      1.00000000      1.00000000      1.00000000      1.00000000      1.00000000      1.00000000      1.00000000      1.00000000      1.00000000      1.00000000      1.00000000      1.00000000      1.00000000      1.00000000      1.00000000      1.00000000      1.00000000      1.00000000
      1.00000000      1.00000000      1.00000000      1.00000000      1.00000000      1.00000000      1.00000000      1.00000000      1.00000000      1.00000000      1.00000000      1.00000000      1.00000000      1.00000000      1.00000000      1.00000000      1.00000000      1.00000000      1.00000000      1.00000000
      1.00000000      1.00000000      1.00000000      1.00000000      1.00000000      1.00000000      1.00000000      1.00000000      1.00000000      1.00000000      1.00000000      1.00000000      1.00000000      1.00000000      1.00000000      1.00000000      1.00000000      1.00000000      1.00000000      1.00000000
      1.00000000      1.00000000      1.00000000      1.00000000      1.00000000      1.00000000      1.00000000      1.00000000      1.00000000      1.00000000      1.00000000      1.00000000      1.00000000      1.00000000      1.00000000      1.00000000      1.00000000      1.00000000      1.00000000      1.00000000
      1.00000000      1.00000000      1.00000000      1.00000000      1.00000000      1.00000000      1.00000000      1.00000000      1.00000000      1.00000000      1.00000000      1.00000000      1.00000000      1.00000000      1.00000000      1.00000000      1.00000000      1.00000000      1.00000000      1.00000000
      1.00000000      1.00000000      1.00000000      1.00000000      1.00000000      1.00000000      1.00000000      1.00000000      1.00000000      1.00000000      1.00000000      1.00000000      1.00000000      1.00000000      1.00000000      1.00000000      1.00000000      1.00000000      1.00000000      1.00000000
      1.00000000      1.00000000      1.00000000      1.00000000      1.00000000      1.00000000      1.00000000      1.00000000      1.00000000      1.00000000      1.00000000      1.00000000      1.00000000      1.00000000      1.00000000      1.00000000      1.00000000      1.00000000      1.00000000      1.00000000
      1.00000000      1.00000000      1.00000000      1.00000000      1.00000000      1.00000000      1.00000000      1.00000000      1.00000000      1.00000000      1.00000000      1.00000000      1.00000000      1.00000000      1.00000000      1.00000000      1.00000000      1.00000000      1.00000000      1.00000000
      1.00000000      1.00000000      1.00000000      1.00000000      1.00000000      1.00000000      1.00000000      1.00000000      1.00000000      1.00000000      1.00000000      1.00000000      1.00000000      1.00000000      1.00000000      1.00000000      1.00000000      1.00000000      1.00000000      1.00000000
      1.00000000      1.00000000      1.00000000      1.00000000      1.00000000      1.00000000      1.00000000      1.00000000      1.00000000      1.00000000      1.00000000      1.00000000      1.00000000      1.00000000      1.00000000      1.00000000      1.00000000      1.00000000      1.00000000      1.00000000
      1.00000000      1.00000000      1.00000000      1.00000000      1.00000000      1.00000000      1.00000000      1.00000000      1.00000000      1.00000000      1.00000000      1.00000000      1.00000000      1.00000000      1.00000000      1.00000000      1.00000000      1.00000000      1.00000000      1.00000000
      1.00000000      1.00000000      1.00000000      1.00000000      1.00000000      1.00000000      1.00000000      1.00000000      1.00000000      1.00000000      1.00000000      1.00000000      1.00000000      1.00000000      1.00000000      1.00000000      1.00000000      1.00000000      1.00000000      1.00000000
      1.00000000      1.00000000      1.00000000      1.00000000      1.00000000      1.00000000</v>
    <i name="NUPDOWN">     -1.00000000</i>
    <i type="logical" name="LSORBIT"> F  </i>
    <v name="SAXIS">      0.00000000      0.00000000      1.00000000</v>
    <i type="logical" name="LSPIRAL"> F  </i>
    <v name="QSPIRAL">      0.00000000      0.00000000      0.00000000</v>
    <i type="logical" name="LZEROZ"> F  </i>
   </separator>
   <separator name="electronic exchange-correlation" >
    <i type="logical" name="LASPH"> F  </i>
    <i type="logical" name="LMETAGGA"> F  </i>
   </separator>
   <separator name="electronic convergence" >
    <i type="int" name="NELM">    60</i>
    <i type="int" name="NELMDL">     0</i>
    <i type="int" name="NELMIN">     5</i>
    <i name="ENINI">    540.00000000</i>
    <separator name="electronic convergence detail" >
     <i type="logical" name="LDIAG"> T  </i>
     <i type="logical" name="LSUBROT"> F  </i>
     <i name="WEIMIN">      0.00100000</i>
     <i name="EBREAK">      0.00000004</i>
     <i name="DEPER">      0.30000000</i>
     <i type="int" name="NRMM">     4</i>
     <i name="TIME">      0.40000000</i>
    </separator>
   </separator>
   <separator name="electronic mixer" >
    <i name="AMIX">      0.40000000</i>
    <i name="BMIX">      1.00000000</i>
    <i name="AMIN">      0.10000000</i>
    <i name="AMIX_MAG">      1.60000000</i>
    <i name="BMIX_MAG">      1.00000000</i>
    <separator name="electronic mixer details" >
     <i type="int" name="IMIX">     4</i>
     <i type="logical" name="MIXFIRST"> F  </i>
     <i type="int" name="MAXMIX">   -45</i>
     <i name="WC">    100.00000000</i>
     <i type="int" name="INIMIX">     1</i>
     <i type="int" name="MIXPRE">     1</i>
     <i type="int" name="MREMOVE">     5</i>
    </separator>
   </separator>
   <separator name="electronic dipolcorrection" >
    <i type="logical" name="LDIPOL"> F  </i>
    <i type="logical" name="LMONO"> F  </i>
    <i type="int" name="IDIPOL">     3</i>
    <i name="EPSILON">      1.00000000</i>
    <v name="DIPOL">   -100.00000000   -100.00000000   -100.00000000</v>
    <i name="EFIELD">      0.00000000</i>
   </separator>
  </separator>
  <separator name="grids" >
   <i type="int" name="NGX">   120</i>
   <i type="int" name="NGY">   120</i>
   <i type="int" name="NGZ">   320</i>
   <i type="int" name="NGXF">   240</i>
   <i type="int" name="NGYF">   240</i>
   <i type="int" name="NGZF">   640</i>
   <i type="logical" name="ADDGRID"> F  </i>
  </separator>
  <separator name="ionic" >
   <i type="int" name="NSW">   100</i>
   <i type="int" name="IBRION">     0</i>
   <i type="int" name="MDALGO">     2</i>
   <i type="int" name="ISIF">     2</i>
   <i name="PSTRESS">      0.00000000</i>
   <i name="EDIFFG">     -0.00950000</i>
   <i type="int" name="NFREE">     0</i>
   <i name="POTIM">      1.00000000</i>
   <i name="SMASS">     -1.00000000</i>
   <i name="SCALEE">      1.00000000</i>
  </separator>
  <separator name="ionic md" >
   <i name="TEBEG">    300.00000000</i>
   <i name="TEEND">    300.00000000</i>
   <i type="int" name="NBLOCK">     1</i>
   <i type="int" name="KBLOCK">   100</i>
   <i type="int" name="NPACO">   256</i>
   <i name="APACO">     10.00000000</i>
  </separator>
  <separator name="symmetry" >
   <i type="int" name="ISYM">     0</i>
   <i name="SYMPREC">      0.00001000</i>
  </separator>
  <separator name="dos" >
   <i type="int" name="LORBIT">     0</i>
   <v name="RWIGS">     -1.00000000     -1.00000000     -1.00000000     -1.00000000</v>
   <i type="int" name="NEDOS">   301</i>
   <i name="EMIN">     10.00000000</i>
   <i name="EMAX">    -10.00000000</i>
   <i name="EFERMI">      0.00000000</i>
  </separator>
  <separator name="writing" >
   <i type="int" name="NWRITE">     1</i>
   <i type="logical" name="LWAVE"> T  </i>
   <i type="logical" name="LDOWNSAMPLE"> F  </i>
   <i type="logical" name="LCHARG"> T  </i>
   <i type="logical" name="LPARD"> F  </i>
   <i type="logical" name="LVTOT"> F  </i>
   <i type="logical" name="LVHAR"> F  </i>
   <i type="logical" name="LELF"> F  </i>
   <i type="logical" name="LOPTICS"> F  </i>
   <v name="STM">      0.00000000      0.00000000      0.00000000      0.00000000      0.00000000      0.00000000      0.00000000</v>
  </separator>
  <separator name="performance" >
   <i type="int" name="NPAR">     8</i>
   <i type="int" name="NSIM">     4</i>
   <i type="int" name="NBLK">    -1</i>
   <i type="logical" name="LPLANE"> T  </i>
   <i type="logical" name="LSCALAPACK"> T  </i>
   <i type="logical" name="LSCAAWARE"> F  </i>
   <i type="logical" name="LSCALU"> F  </i>
   <i type="logical" name="LASYNC"> F  </i>
   <i type="logical" name="LORBITALREAL"> F  </i>
  </separator>
  <separator name="miscellaneous" >
   <i type="int" name="IDIOT">     3</i>
   <i type="int" name="PHON_NSTRUCT">    -1</i>
   <i type="logical" name="LMUSIC"> F  </i>
   <v name="POMASS">     12.01100000      1.00000000      1.00000000     28.08500000</v>
   <v name="DARWINR">      0.00000000      0.00000000      0.00000000      0.00000000</v>
   <v name="DARWINV">      1.00000000      1.00000000      1.00000000      1.00000000</v>
   <i type="logical" name="LCORR"> T  </i>
  </separator>
  <i type="logical" name="GGA_COMPAT"> T  </i>
  <i type="logical" name="LBERRY"> F  </i>
  <i type="int" name="ICORELEVEL">     0</i>
  <i type="logical" name="LDAU"> F  </i>
  <i type="int" name="I_CONSTRAINED_M">     0</i>
  <separator name="electronic exchange-correlation" >
   <i type="string" name="GGA">--</i>
   <i type="int" name="VOSKOWN">     0</i>
   <i type="logical" name="LHFCALC"> F  </i>
   <i type="string" name="PRECFOCK"></i>
   <i type="logical" name="LSYMGRAD"> F  </i>
   <i type="logical" name="LHFONE"> F  </i>
   <i type="logical" name="LRHFCALC"> F  </i>
   <i type="logical" name="LTHOMAS"> F  </i>
   <i type="logical" name="LMODELHF"> F  </i>
   <i type="logical" name="LFOCKACE"> F  </i>
   <i name="ENCUT4O">     -1.00000000</i>
   <i type="int" name="EXXOEP">     0</i>
   <i type="int" name="FOURORBIT">     0</i>
   <i name="AEXX">      0.00000000</i>
   <i name="HFALPHA">      0.00000000</i>
   <i name="MCALPHA">      0.00000000</i>
   <i name="ALDAX">      1.00000000</i>
   <i name="AGGAX">      1.00000000</i>
   <i name="ALDAC">      1.00000000</i>
   <i name="AGGAC">      1.00000000</i>
   <i type="int" name="NKREDX">     1</i>
   <i type="int" name="NKREDY">     1</i>
   <i type="int" name="NKREDZ">     1</i>
   <i type="logical" name="SHIFTRED"> F  </i>
   <i type="logical" name="ODDONLY"> F  </i>
   <i type="logical" name="EVENONLY"> F  </i>
   <i type="int" name="LMAXFOCK">     0</i>
   <i type="int" name="NMAXFOCKAE">     0</i>
   <i type="logical" name="LFOCKAEDFT"> F  </i>
   <i name="HFSCREEN">      0.00000000</i>
   <i name="HFSCREENC">      0.00000000</i>
   <i type="int" name="NBANDSGWLOW">     0</i>
  </separator>
  <separator name="vdW DFT" >
   <i type="logical" name="LUSE_VDW"> F  </i>
   <i name="Zab_VDW">     -0.84910000</i>
   <i name="PARAM1">      0.12340000</i>
   <i name="PARAM2">      1.00000000</i>
   <i name="PARAM3">      0.00000000</i>
  </separator>
  <separator name="model GW" >
   <i type="int" name="MODEL_GW">     0</i>
   <i name="MODEL_EPS0">     20.63739797</i>
   <i name="MODEL_ALPHA">      1.00000000</i>
  </separator>
  <separator name="linear response parameters" >
   <i type="logical" name="LEPSILON"> F  </i>
   <i type="logical" name="LRPA"> F  </i>
   <i type="logical" name="LNABLA"> F  </i>
   <i type="logical" name="LVEL"> F  </i>
   <i name="CSHIFT">      0.10000000</i>
   <i name="OMEGAMAX">     -1.00000000</i>
   <i name="DEG_THRESHOLD">      0.00200000</i>
   <i name="RTIME">     -0.10000000</i>
   <i name="WPLASMAI">      0.00000000</i>
   <v name="DFIELD">      0.00000000      0.00000000      0.00000000</v>
   <v name="WPLASMA">      0.00000000      0.00000000      0.00000000      0.00000000      0.00000000      0.00000000      0.00000000      0.00000000      0.00000000</v>
  </separator>
  <separator name="orbital magnetization" >
   <i type="logical" name="NUCIND"> F  </i>
   <v name="MAGPOS">      0.00000000      0.00000000      0.00000000</v>
   <i type="logical" name="LNICSALL"> T  </i>
   <i type="logical" name="ORBITALMAG"> F  </i>
   <i type="logical" name="LMAGBLOCH"> F  </i>
   <i type="logical" name="LCHIMAG"> F  </i>
   <i type="logical" name="LGAUGE"> T  </i>
   <i type="int" name="MAGATOM">     0</i>
   <v name="MAGDIPOL">      0.00000000      0.00000000      0.00000000</v>
   <v name="AVECCONST">      0.00000000      0.00000000      0.00000000</v>
  </separator>
  <separator name="response functions" >
   <i type="logical" name="LFINITE_TEMPERATURE"> F  </i>
   <i type="logical" name="LADDER"> F  </i>
   <i type="logical" name="LRPAFORCE"> F  </i>
   <i type="logical" name="LFXC"> F  </i>
   <i type="logical" name="LHARTREE"> T  </i>
   <i type="int" name="IBSE">     0</i>
   <v type="int" name="KPOINT">    -1     0     0     0</v>
   <i type="logical" name="LTCTC"> F  </i>
   <i type="logical" name="LTCTE"> F  </i>
   <i type="logical" name="LTETE"> F  </i>
   <i type="logical" name="LTRIPLET"> F  </i>
   <i type="logical" name="LFXCEPS"> F  </i>
   <i type="logical" name="LFXHEG"> F  </i>
   <i type="int" name="NATURALO">     2</i>
   <i type="logical" name="LHOLEGF"> F  </i>
   <i type="logical" name="L2ORDER"> F  </i>
   <i type="logical" name="LDMP1"> F  </i>
   <i type="logical" name="LMP2LT"> F  </i>
   <i type="logical" name="LSMP2LT"> F  </i>
   <i type="logical" name="LGWLF"> F  </i>
   <i name="ENCUTGW">     -2.00000000</i>
   <i name="ENCUTGWSOFT">     -2.00000000</i>
   <i name="ENCUTLF">     -1.00000000</i>
   <i type="logical" name="LESF_SPLINES"> F  </i>
   <i type="int" name="LMAXMP2">    -1</i>
   <i name="SCISSOR">      0.00000000</i>
   <i type="int" name="NOMEGA">     0</i>
   <i type="int" name="NOMEGAR">     0</i>
   <i type="int" name="NBANDSGW">    -1</i>
   <i type="int" name="NBANDSO">    -1</i>
   <i type="int" name="NBANDSV">    -1</i>
   <i type="int" name="NELMGW">     1</i>
   <i type="int" name="NELMHF">     1</i>
   <i type="int" name="DIM">     3</i>
   <i type="int" name="IESPILON">     4</i>
   <i type="int" name="ANTIRES">     0</i>
   <i name="OMEGAMAX">    -30.00000000</i>
   <i name="OMEGAMIN">    -30.00000000</i>
   <i name="OMEGATL">   -200.00000000</i>
   <i type="int" name="OMEGAGRID">     0</i>
   <i name="CSHIFT">     -0.10000000</i>
   <i type="logical" name="LSELFENERGY"> F  </i>
   <i type="logical" name="LSPECTRAL"> F  </i>
   <i type="logical" name="LSPECTRALGW"> F  </i>
   <i type="logical" name="LSINGLES"> F  </i>
   <i type="logical" name="LFERMIGW"> F  </i>
   <i type="logical" name="ODDONLYGW"> F  </i>
   <i type="logical" name="EVENONLYGW"> F  </i>
   <i type="int" name="NKREDLFX">     1</i>
   <i type="int" name="NKREDLFY">     1</i>
   <i type="int" name="NKREDLFZ">     1</i>
   <i type="int" name="MAXMEM">  2800</i>
   <i type="int" name="TELESCOPE">     0</i>
   <i type="int" name="NTAUPAR">    -1</i>
   <i type="int" name="NOMEGAPAR">    -1</i>
   <i name="DAMP_NEWTON">      0.80000001</i>
   <i name="LAMBDA">      1.00000000</i>
  </separator>
  <separator name="External order field" >
   <i name="OFIELD_KAPPA">      0.00000000</i>
   <v name="OFIELD_K">      0.00000000      0.00000000      0.00000000</v>
   <i name="OFIELD_Q6_NEAR">      0.00000000</i>
   <i name="OFIELD_Q6_FAR">      0.00000000</i>
   <i name="OFIELD_A">      0.00000000</i>
  </separator>
  <separator name="optional k-points parameters" >
   <i type="int" name="KPOINTS_OPT_MODE">     1</i>
   <i type="logical" name="LKPOINTS_OPT"> F  </i>
  </separator>
 </parameters>
 <atominfo>
  <atoms>     246 </atoms>
  <types>       4 </types>
  <array name="atoms" >
   <dimension dim="1">ion</dimension>
   <field type="string">element</field>
   <field type="int">atomtype</field>
   <set>
    <rc><c>C </c><c>   1</c></rc>
    <rc><c>C </c><c>   1</c></rc>
    <rc><c>C </c><c>   1</c></rc>
    <rc><c>C </c><c>   1</c></rc>
    <rc><c>C </c><c>   1</c></rc>
    <rc><c>C </c><c>   1</c></rc>
    <rc><c>C </c><c>   1</c></rc>
    <rc><c>C </c><c>   1</c></rc>
    <rc><c>C </c><c>   1</c></rc>
    <rc><c>C </c><c>   1</c></rc>
    <rc><c>C </c><c>   1</c></rc>
    <rc><c>C </c><c>   1</c></rc>
    <rc><c>C </c><c>   1</c></rc>
    <rc><c>C </c><c>   1</c></rc>
    <rc><c>H </c><c>   2</c></rc>
    <rc><c>H </c><c>   2</c></rc>
    <rc><c>H </c><c>   2</c></rc>
    <rc><c>H </c><c>   2</c></rc>
    <rc><c>H </c><c>   2</c></rc>
    <rc><c>H </c><c>   2</c></rc>
    <rc><c>H </c><c>   2</c></rc>
    <rc><c>H </c><c>   2</c></rc>
    <rc><c>H </c><c>   2</c></rc>
    <rc><c>H </c><c>   3</c></rc>
    <rc><c>H </c><c>   3</c></rc>
    <rc><c>H </c><c>   3</c></rc>
    <rc><c>H </c><c>   3</c></rc>
    <rc><c>H </c><c>   3</c></rc>
    <rc><c>H </c><c>   3</c></rc>
    <rc><c>H </c><c>   3</c></rc>
    <rc><c>H </c><c>   3</c></rc>
    <rc><c>H </c><c>   3</c></rc>
    <rc><c>H </c><c>   3</c></rc>
    <rc><c>H </c><c>   3</c></rc>
    <rc><c>H </c><c>   3</c></rc>
    <rc><c>H </c><c>   3</c></rc>
    <rc><c>H </c><c>   3</c></rc>
    <rc><c>H </c><c>   3</c></rc>
    <rc><c>H </c><c>   3</c></rc>
    <rc><c>H </c><c>   3</c></rc>
    <rc><c>H </c><c>   3</c></rc>
    <rc><c>H </c><c>   3</c></rc>
    <rc><c>H </c><c>   3</c></rc>
    <rc><c>H </c><c>   3</c></rc>
    <rc><c>H </c><c>   3</c></rc>
    <rc><c>H </c><c>   3</c></rc>
    <rc><c>H </c><c>   3</c></rc>
    <rc><c>H </c><c>   3</c></rc>
    <rc><c>H </c><c>   3</c></rc>
    <rc><c>H </c><c>   3</c></rc>
    <rc><c>H </c><c>   3</c></rc>
    <rc><c>H </c><c>   3</c></rc>
    <rc><c>H </c><c>   3</c></rc>
    <rc><c>H </c><c>   3</c></rc>
    <rc><c>Si</c><c>   4</c></rc>
    <rc><c>Si</c><c>   4</c></rc>
    <rc><c>Si</c><c>   4</c></rc>
    <rc><c>Si</c><c>   4</c></rc>
    <rc><c>Si</c><c>   4</c></rc>
    <rc><c>Si</c><c>   4</c></rc>
    <rc><c>Si</c><c>   4</c></rc>
    <rc><c>Si</c><c>   4</c></rc>
    <rc><c>Si</c><c>   4</c></rc>
    <rc><c>Si</c><c>   4</c></rc>
    <rc><c>Si</c><c>   4</c></rc>
    <rc><c>Si</c><c>   4</c></rc>
    <rc><c>Si</c><c>   4</c></rc>
    <rc><c>Si</c><c>   4</c></rc>
    <rc><c>Si</c><c>   4</c></rc>
    <rc><c>Si</c><c>   4</c></rc>
    <rc><c>Si</c><c>   4</c></rc>
    <rc><c>Si</c><c>   4</c></rc>
    <rc><c>Si</c><c>   4</c></rc>
    <rc><c>Si</c><c>   4</c></rc>
    <rc><c>Si</c><c>   4</c></rc>
    <rc><c>Si</c><c>   4</c></rc>
    <rc><c>Si</c><c>   4</c></rc>
    <rc><c>Si</c><c>   4</c></rc>
    <rc><c>Si</c><c>   4</c></rc>
    <rc><c>Si</c><c>   4</c></rc>
    <rc><c>Si</c><c>   4</c></rc>
    <rc><c>Si</c><c>   4</c></rc>
    <rc><c>Si</c><c>   4</c></rc>
    <rc><c>Si</c><c>   4</c></rc>
    <rc><c>Si</c><c>   4</c></rc>
    <rc><c>Si</c><c>   4</c></rc>
    <rc><c>Si</c><c>   4</c></rc>
    <rc><c>Si</c><c>   4</c></rc>
    <rc><c>Si</c><c>   4</c></rc>
    <rc><c>Si</c><c>   4</c></rc>
    <rc><c>Si</c><c>   4</c></rc>
    <rc><c>Si</c><c>   4</c></rc>
    <rc><c>Si</c><c>   4</c></rc>
    <rc><c>Si</c><c>   4</c></rc>
    <rc><c>Si</c><c>   4</c></rc>
    <rc><c>Si</c><c>   4</c></rc>
    <rc><c>Si</c><c>   4</c></rc>
    <rc><c>Si</c><c>   4</c></rc>
    <rc><c>Si</c><c>   4</c></rc>
    <rc><c>Si</c><c>   4</c></rc>
    <rc><c>Si</c><c>   4</c></rc>
    <rc><c>Si</c><c>   4</c></rc>
    <rc><c>Si</c><c>   4</c></rc>
    <rc><c>Si</c><c>   4</c></rc>
    <rc><c>Si</c><c>   4</c></rc>
    <rc><c>Si</c><c>   4</c></rc>
    <rc><c>Si</c><c>   4</c></rc>
    <rc><c>Si</c><c>   4</c></rc>
    <rc><c>Si</c><c>   4</c></rc>
    <rc><c>Si</c><c>   4</c></rc>
    <rc><c>Si</c><c>   4</c></rc>
    <rc><c>Si</c><c>   4</c></rc>
    <rc><c>Si</c><c>   4</c></rc>
    <rc><c>Si</c><c>   4</c></rc>
    <rc><c>Si</c><c>   4</c></rc>
    <rc><c>Si</c><c>   4</c></rc>
    <rc><c>Si</c><c>   4</c></rc>
    <rc><c>Si</c><c>   4</c></rc>
    <rc><c>Si</c><c>   4</c></rc>
    <rc><c>Si</c><c>   4</c></rc>
    <rc><c>Si</c><c>   4</c></rc>
    <rc><c>Si</c><c>   4</c></rc>
    <rc><c>Si</c><c>   4</c></rc>
    <rc><c>Si</c><c>   4</c></rc>
    <rc><c>Si</c><c>   4</c></rc>
    <rc><c>Si</c><c>   4</c></rc>
    <rc><c>Si</c><c>   4</c></rc>
    <rc><c>Si</c><c>   4</c></rc>
    <rc><c>Si</c><c>   4</c></rc>
    <rc><c>Si</c><c>   4</c></rc>
    <rc><c>Si</c><c>   4</c></rc>
    <rc><c>Si</c><c>   4</c></rc>
    <rc><c>Si</c><c>   4</c></rc>
    <rc><c>Si</c><c>   4</c></rc>
    <rc><c>Si</c><c>   4</c></rc>
    <rc><c>Si</c><c>   4</c></rc>
    <rc><c>Si</c><c>   4</c></rc>
    <rc><c>Si</c><c>   4</c></rc>
    <rc><c>Si</c><c>   4</c></rc>
    <rc><c>Si</c><c>   4</c></rc>
    <rc><c>Si</c><c>   4</c></rc>
    <rc><c>Si</c><c>   4</c></rc>
    <rc><c>Si</c><c>   4</c></rc>
    <rc><c>Si</c><c>   4</c></rc>
    <rc><c>Si</c><c>   4</c></rc>
    <rc><c>Si</c><c>   4</c></rc>
    <rc><c>Si</c><c>   4</c></rc>
    <rc><c>Si</c><c>   4</c></rc>
    <rc><c>Si</c><c>   4</c></rc>
    <rc><c>Si</c><c>   4</c></rc>
    <rc><c>Si</c><c>   4</c></rc>
    <rc><c>Si</c><c>   4</c></rc>
    <rc><c>Si</c><c>   4</c></rc>
    <rc><c>Si</c><c>   4</c></rc>
    <rc><c>Si</c><c>   4</c></rc>
    <rc><c>Si</c><c>   4</c></rc>
    <rc><c>Si</c><c>   4</c></rc>
    <rc><c>Si</c><c>   4</c></rc>
    <rc><c>Si</c><c>   4</c></rc>
    <rc><c>Si</c><c>   4</c></rc>
    <rc><c>Si</c><c>   4</c></rc>
    <rc><c>Si</c><c>   4</c></rc>
    <rc><c>Si</c><c>   4</c></rc>
    <rc><c>Si</c><c>   4</c></rc>
    <rc><c>Si</c><c>   4</c></rc>
    <rc><c>Si</c><c>   4</c></rc>
    <rc><c>Si</c><c>   4</c></rc>
    <rc><c>Si</c><c>   4</c></rc>
    <rc><c>Si</c><c>   4</c></rc>
    <rc><c>Si</c><c>   4</c></rc>
    <rc><c>Si</c><c>   4</c></rc>
    <rc><c>Si</c><c>   4</c></rc>
    <rc><c>Si</c><c>   4</c></rc>
    <rc><c>Si</c><c>   4</c></rc>
    <rc><c>Si</c><c>   4</c></rc>
    <rc><c>Si</c><c>   4</c></rc>
    <rc><c>Si</c><c>   4</c></rc>
    <rc><c>Si</c><c>   4</c></rc>
    <rc><c>Si</c><c>   4</c></rc>
    <rc><c>Si</c><c>   4</c></rc>
    <rc><c>Si</c><c>   4</c></rc>
    <rc><c>Si</c><c>   4</c></rc>
    <rc><c>Si</c><c>   4</c></rc>
    <rc><c>Si</c><c>   4</c></rc>
    <rc><c>Si</c><c>   4</c></rc>
    <rc><c>Si</c><c>   4</c></rc>
    <rc><c>Si</c><c>   4</c></rc>
    <rc><c>Si</c><c>   4</c></rc>
    <rc><c>Si</c><c>   4</c></rc>
    <rc><c>Si</c><c>   4</c></rc>
    <rc><c>Si</c><c>   4</c></rc>
    <rc><c>Si</c><c>   4</c></rc>
    <rc><c>Si</c><c>   4</c></rc>
    <rc><c>Si</c><c>   4</c></rc>
    <rc><c>Si</c><c>   4</c></rc>
    <rc><c>Si</c><c>   4</c></rc>
    <rc><c>Si</c><c>   4</c></rc>
    <rc><c>Si</c><c>   4</c></rc>
    <rc><c>Si</c><c>   4</c></rc>
    <rc><c>Si</c><c>   4</c></rc>
    <rc><c>Si</c><c>   4</c></rc>
    <rc><c>Si</c><c>   4</c></rc>
    <rc><c>Si</c><c>   4</c></rc>
    <rc><c>Si</c><c>   4</c></rc>
    <rc><c>Si</c><c>   4</c></rc>
    <rc><c>Si</c><c>   4</c></rc>
    <rc><c>Si</c><c>   4</c></rc>
    <rc><c>Si</c><c>   4</c></rc>
    <rc><c>Si</c><c>   4</c></rc>
    <rc><c>Si</c><c>   4</c></rc>
    <rc><c>Si</c><c>   4</c></rc>
    <rc><c>Si</c><c>   4</c></rc>
    <rc><c>Si</c><c>   4</c></rc>
    <rc><c>Si</c><c>   4</c></rc>
    <rc><c>Si</c><c>   4</c></rc>
    <rc><c>Si</c><c>   4</c></rc>
    <rc><c>Si</c><c>   4</c></rc>
    <rc><c>Si</c><c>   4</c></rc>
    <rc><c>Si</c><c>   4</c></rc>
    <rc><c>Si</c><c>   4</c></rc>
    <rc><c>Si</c><c>   4</c></rc>
    <rc><c>Si</c><c>   4</c></rc>
    <rc><c>Si</c><c>   4</c></rc>
    <rc><c>Si</c><c>   4</c></rc>
    <rc><c>Si</c><c>   4</c></rc>
    <rc><c>Si</c><c>   4</c></rc>
    <rc><c>Si</c><c>   4</c></rc>
    <rc><c>Si</c><c>   4</c></rc>
    <rc><c>Si</c><c>   4</c></rc>
    <rc><c>Si</c><c>   4</c></rc>
    <rc><c>Si</c><c>   4</c></rc>
    <rc><c>Si</c><c>   4</c></rc>
    <rc><c>Si</c><c>   4</c></rc>
    <rc><c>Si</c><c>   4</c></rc>
    <rc><c>Si</c><c>   4</c></rc>
    <rc><c>Si</c><c>   4</c></rc>
    <rc><c>Si</c><c>   4</c></rc>
    <rc><c>Si</c><c>   4</c></rc>
    <rc><c>Si</c><c>   4</c></rc>
    <rc><c>Si</c><c>   4</c></rc>
    <rc><c>Si</c><c>   4</c></rc>
    <rc><c>Si</c><c>   4</c></rc>
    <rc><c>Si</c><c>   4</c></rc>
    <rc><c>Si</c><c>   4</c></rc>
    <rc><c>Si</c><c>   4</c></rc>
    <rc><c>Si</c><c>   4</c></rc>
   </set>
  </array>
  <array name="atomtypes" >
   <dimension dim="1">type</dimension>
   <field type="int">atomspertype</field>
   <field type="string">element</field>
   <field>mass</field>
   <field>valence</field>
   <field type="string">pseudopotential</field>
   <set>
    <rc><c>  14</c><c>C </c><c>     12.01100000</c><c>      4.00000000</c><c>  PAW_PBE C_GW 28Sep2005                </c></rc>
    <rc><c>   9</c><c>H </c><c>      1.00000000</c><c>      1.00000000</c><c>  PAW_PBE H_GW 21Apr2008                </c></rc>
    <rc><c>  31</c><c>H </c><c>      1.00000000</c><c>      1.00000000</c><c>  PAW_PBE H_GW 21Apr2008                </c></rc>
    <rc><c> 192</c><c>Si</c><c>     28.08500000</c><c>      4.00000000</c><c>  PAW_PBE Si_GW 04May2012               </c></rc>
   </set>
  </array>
 </atominfo>
 <structure name="initialpos" >
  <crystal>
   <varray name="basis" >
    <v>      15.33298779       0.00000000       0.00000000 </v>
    <v>       7.66649389      13.27875694       0.00000000 </v>
    <v>       0.00000000       0.00000000      41.55799484 </v>
   </varray>
   <i name="volume">   8461.33316923 </i>
   <varray name="rec_basis" >
    <v>       0.06521886      -0.03765413       0.00000000 </v>
    <v>       0.00000000       0.07530825       0.00000000 </v>
    <v>       0.00000000       0.00000000       0.02406276 </v>
   </varray>
  </crystal>
  <varray name="positions" >
   <v>       0.62368388       0.43078066       0.56225688 </v>
   <v>       0.57203952       0.38469787       0.55170913 </v>
   <v>       0.62606916       0.50694124       0.54554600 </v>
   <v>       0.51316775       0.41682225       0.52121963 </v>
   <v>       0.51397551       0.49652815       0.50334594 </v>
   <v>       0.57005066       0.54263049       0.51652541 </v>
   <v>       0.68334244       0.54615094       0.55918168 </v>
   <v>       0.68789536       0.62286716       0.54370445 </v>
   <v>       0.63334614       0.66258883       0.51451568 </v>
   <v>       0.57727343       0.62408218       0.50270685 </v>
   <v>       0.57694462       0.30634727       0.57008261 </v>
   <v>       0.52709528       0.25943254       0.55966589 </v>
   <v>       0.47475499       0.28131211       0.52860323 </v>
   <v>       0.46111177       0.36299881       0.51091086 </v>
   <v>       0.63569704       0.27765068       0.58835358 </v>
   <v>       0.52772111       0.19820706       0.57227670 </v>
   <v>       0.42862982       0.24786790       0.52335457 </v>
   <v>       0.40774504       0.38800145       0.49137062 </v>
   <v>       0.66564498       0.39736874       0.58476695 </v>
   <v>       0.52599786       0.66324119       0.48368142 </v>
   <v>       0.62253716       0.73416404       0.50528161 </v>
   <v>       0.72519907       0.50902494       0.58154989 </v>
   <v>       0.72761784       0.65432256       0.55547589 </v>
   <v>       0.00475372       0.99110682       0.02034641 </v>
   <v>       0.49944576       0.00009049       0.02036861 </v>
   <v>       0.01482054       0.48339009       0.02038713 </v>
   <v>       0.50412297       0.50195716       0.02001535 </v>
   <v>       0.26392941       0.98507024       0.02084807 </v>
   <v>       0.74121162       0.01255737       0.02066822 </v>
   <v>       0.26082045       0.49694991       0.02195101 </v>
   <v>       0.76114704       0.51149279       0.01845114 </v>
   <v>       0.00846095       0.24672097       0.01929158 </v>
   <v>       0.50529457       0.24001545       0.02315778 </v>
   <v>       0.98487639       0.74725881       0.02354265 </v>
   <v>       0.52135251       0.74897685       0.02275181 </v>
   <v>       0.26729850       0.23303087       0.02065602 </v>
   <v>       0.75481660       0.25841961       0.01711416 </v>
   <v>       0.24488211       0.75482129       0.02193095 </v>
   <v>       0.76459153       0.74140065       0.02045219 </v>
   <v>       0.00371220       0.00095645       0.48641281 </v>
   <v>       0.48014829       0.00308930       0.48464514 </v>
   <v>       0.01978196       0.48598499       0.48614006 </v>
   <v>       0.26678518       0.99893575       0.48506444 </v>
   <v>       0.73879586       0.01509056       0.48461470 </v>
   <v>       0.26679012       0.48990548       0.48306913 </v>
   <v>       0.77711329       0.50336184       0.48373143 </v>
   <v>       0.99826817       0.25159521       0.48720650 </v>
   <v>       0.52766524       0.22324195       0.47663915 </v>
   <v>       0.00722976       0.74307054       0.48557779 </v>
   <v>       0.48015783       0.80715775       0.47821239 </v>
   <v>       0.26252922       0.25620575       0.48644566 </v>
   <v>       0.75195066       0.23540614       0.48676669 </v>
   <v>       0.24723327       0.75051953       0.48213975 </v>
   <v>       0.74546549       0.75887500       0.48750690 </v>
   <v>       0.00039291       0.99149560       0.05660701 </v>
   <v>       0.50147052       0.99954765       0.05585688 </v>
   <v>       0.00452499       0.49295936       0.05662966 </v>
   <v>       0.50068361       0.50402626       0.05638935 </v>
   <v>       0.25555042       0.99662903       0.05677369 </v>
   <v>       0.74434806       0.00394254       0.05685101 </v>
   <v>       0.25139457       0.50254406       0.05756832 </v>
   <v>       0.76291985       0.49810771       0.05481035 </v>
   <v>       0.01024169       0.23841018       0.05554336 </v>
   <v>       0.49951230       0.25272841       0.05940489 </v>
   <v>       0.99304185       0.74941101       0.05898774 </v>
   <v>       0.50709943       0.74922007       0.05822546 </v>
   <v>       0.25662207       0.24522633       0.05720130 </v>
   <v>       0.75161196       0.25064162       0.05372235 </v>
   <v>       0.25033167       0.75133167       0.05681835 </v>
   <v>       0.75423464       0.74790023       0.05651722 </v>
   <v>       0.82526196       0.83904704       0.07686405 </v>
   <v>       0.33681374       0.83033824       0.07550497 </v>
   <v>       0.83846706       0.33499207       0.07302241 </v>
   <v>       0.33487344       0.33275575       0.07601410 </v>
   <v>       0.08449239       0.82489620       0.07537685 </v>
   <v>       0.58956133       0.83415062       0.07594622 </v>
   <v>       0.08912381       0.32639243       0.07448286 </v>
   <v>       0.58476919       0.33899539       0.07374752 </v>
   <v>       0.83130091       0.08682243       0.07424955 </v>
   <v>       0.33850530       0.08148250       0.07653014 </v>
   <v>       0.83868758       0.58489261       0.07555432 </v>
   <v>       0.33359825       0.58946438       0.07607505 </v>
   <v>       0.08591819       0.07481720       0.07286127 </v>
   <v>       0.58187056       0.08500740       0.07593422 </v>
   <v>       0.08472361       0.58051877       0.07571506 </v>
   <v>       0.59211430       0.57840735       0.07353929 </v>
   <v>       0.83214706       0.83958544       0.13204564 </v>
   <v>       0.32967248       0.82837555       0.13206854 </v>
   <v>       0.83709448       0.33405664       0.12935593 </v>
   <v>       0.33102426       0.32891391       0.13203926 </v>
   <v>       0.08097324       0.83064130       0.13142117 </v>
   <v>       0.58646454       0.83840655       0.13289325 </v>
   <v>       0.08733752       0.32984807       0.13023342 </v>
   <v>       0.57975361       0.34338069       0.13037621 </v>
   <v>       0.82976956       0.08768063       0.13135052 </v>
   <v>       0.33977979       0.07941976       0.13321353 </v>
   <v>       0.83628208       0.57664359       0.13181260 </v>
   <v>       0.33017910       0.58493614       0.13326314 </v>
   <v>       0.08934982       0.07621506       0.12943333 </v>
   <v>       0.57877798       0.08869668       0.13195922 </v>
   <v>       0.08493925       0.58073211       0.13171247 </v>
   <v>       0.58112209       0.58468162       0.13130256 </v>
   <v>       0.66942250       0.66740178       0.15015368 </v>
   <v>       0.16213210       0.66821583       0.15229745 </v>
   <v>       0.66264297       0.17584146       0.15142391 </v>
   <v>       0.16663247       0.16436139       0.15066692 </v>
   <v>       0.92038493       0.66250962       0.15032589 </v>
   <v>       0.41956637       0.66027997       0.14981111 </v>
   <v>       0.91692371       0.16908006       0.14910625 </v>
   <v>       0.41627197       0.16635467       0.15135035 </v>
   <v>       0.66568398       0.92635614       0.15055576 </v>
   <v>       0.16440539       0.91497342       0.15069451 </v>
   <v>       0.66757480       0.41893753       0.14997912 </v>
   <v>       0.16987580       0.40917141       0.15060511 </v>
   <v>       0.91724707       0.91857428       0.15025313 </v>
   <v>       0.41516836       0.91313556       0.15000138 </v>
   <v>       0.92211330       0.41245223       0.15053823 </v>
   <v>       0.41229587       0.41864071       0.14897209 </v>
   <v>       0.66691256       0.66650248       0.20705400 </v>
   <v>       0.16691388       0.66649014       0.20705898 </v>
   <v>       0.66690344       0.16650572       0.20706598 </v>
   <v>       0.16684061       0.16660814       0.20708179 </v>
   <v>       0.91692531       0.66649854       0.20705917 </v>
   <v>       0.41692519       0.66647869       0.20706536 </v>
   <v>       0.91692513       0.16650243       0.20707472 </v>
   <v>       0.41696414       0.16651435       0.20706744 </v>
   <v>       0.66691798       0.91648233       0.20704252 </v>
   <v>       0.16694951       0.91644073       0.20704633 </v>
   <v>       0.66691595       0.41648963       0.20705459 </v>
   <v>       0.16692059       0.41647589       0.20705572 </v>
   <v>       0.91694874       0.91646326       0.20705239 </v>
   <v>       0.41701031       0.91640425       0.20704821 </v>
   <v>       0.91693836       0.41649175       0.20706075 </v>
   <v>       0.41692036       0.41647944       0.20706344 </v>
   <v>       0.50027961       0.49979386       0.22588077 </v>
   <v>       0.00028667       0.49982324       0.22588116 </v>
   <v>       0.50028664       0.99980050       0.22585523 </v>
   <v>       0.00032078       0.99976605       0.22586109 </v>
   <v>       0.75028151       0.49981755       0.22585414 </v>
   <v>       0.25025454       0.49979892       0.22586794 </v>
   <v>       0.75028825       0.99977207       0.22584361 </v>
   <v>       0.25032210       0.99981099       0.22577891 </v>
   <v>       0.50031888       0.74973106       0.22591361 </v>
   <v>       0.00028389       0.74979836       0.22589213 </v>
   <v>       0.50029421       0.24984773       0.22593303 </v>
   <v>       0.00016690       0.24989246       0.22594903 </v>
   <v>       0.75026935       0.74982309       0.22586657 </v>
   <v>       0.25028658       0.74977243       0.22589330 </v>
   <v>       0.75025457       0.24982803       0.22588788 </v>
   <v>       0.25034884       0.24982284       0.22589789 </v>
   <v>       0.50049311       0.49963021       0.28230625 </v>
   <v>       0.00050731       0.49968964       0.28230852 </v>
   <v>       0.50051337       0.99962586       0.28226966 </v>
   <v>       0.00059072       0.99956340       0.28227770 </v>
   <v>       0.75046229       0.49970725       0.28226706 </v>
   <v>       0.25044429       0.49965557       0.28228563 </v>
   <v>       0.75051129       0.99957675       0.28225109 </v>
   <v>       0.25060219       0.99960679       0.28215271 </v>
   <v>       0.50056702       0.74950278       0.28235546 </v>
   <v>       0.00050130       0.74963838       0.28232342 </v>
   <v>       0.50053847       0.24974354       0.28238246 </v>
   <v>       0.00022542       0.24985044       0.28240287 </v>
   <v>       0.75046211       0.74969256       0.28228703 </v>
   <v>       0.25051790       0.74957991       0.28232458 </v>
   <v>       0.75041085       0.24970731       0.28231668 </v>
   <v>       0.25066370       0.24970363       0.28232852 </v>
   <v>       0.33391163       0.33313787       0.30122888 </v>
   <v>       0.83340478       0.33325410       0.30123815 </v>
   <v>       0.33380580       0.83306384       0.30105916 </v>
   <v>       0.83384037       0.83295310       0.30113372 </v>
   <v>       0.58387220       0.33310598       0.30124068 </v>
   <v>       0.08398665       0.33295631       0.30108732 </v>
   <v>       0.58382905       0.83298177       0.30112001 </v>
   <v>       0.08388577       0.83291119       0.30115694 </v>
   <v>       0.33384538       0.58284026       0.30112976 </v>
   <v>       0.83381855       0.58302647       0.30109686 </v>
   <v>       0.33384517       0.08289958       0.30104592 </v>
   <v>       0.83388197       0.08288339       0.30102268 </v>
   <v>       0.58398402       0.58273447       0.30118588 </v>
   <v>       0.08386202       0.58297580       0.30116987 </v>
   <v>       0.58390039       0.08290785       0.30108312 </v>
   <v>       0.08406826       0.08289581       0.30098030 </v>
   <v>       0.33302928       0.33434312       0.35839367 </v>
   <v>       0.83827918       0.33159923       0.35834557 </v>
   <v>       0.33415980       0.82951979       0.35573750 </v>
   <v>       0.83161762       0.83017343       0.35772918 </v>
   <v>       0.58759177       0.33755914       0.35683400 </v>
   <v>       0.08783739       0.33549848       0.35595150 </v>
   <v>       0.58646439       0.83291898       0.35602478 </v>
   <v>       0.07742054       0.83329414       0.35729678 </v>
   <v>       0.33633311       0.59180851       0.35619555 </v>
   <v>       0.83558152       0.58132795       0.35649672 </v>
   <v>       0.33110091       0.08789347       0.35487540 </v>
   <v>       0.83886235       0.07761839       0.35696410 </v>
   <v>       0.58463554       0.58204341       0.35691849 </v>
   <v>       0.08121396       0.57909910       0.35702627 </v>
   <v>       0.58403496       0.08136227       0.35644814 </v>
   <v>       0.09496470       0.07999375       0.35784037 </v>
   <v>       0.17306863       0.17641309       0.37458806 </v>
   <v>       0.66556420       0.16968520       0.37082833 </v>
   <v>       0.16996675       0.65572888       0.37331301 </v>
   <v>       0.67027754       0.66837620       0.37504233 </v>
   <v>       0.42047909       0.16503077       0.37324113 </v>
   <v>       0.92109988       0.16294570       0.37538514 </v>
   <v>       0.42318873       0.66653832       0.37823693 </v>
   <v>       0.91672257       0.66537543       0.37670658 </v>
   <v>       0.17126720       0.41327028       0.37439021 </v>
   <v>       0.67025354       0.41656564       0.37810583 </v>
   <v>       0.16648450       0.91320956       0.37437452 </v>
   <v>       0.66607090       0.91599317       0.37617058 </v>
   <v>       0.41937013       0.42408481       0.37460445 </v>
   <v>       0.92401165       0.41701767       0.37408978 </v>
   <v>       0.41442476       0.91525452       0.37143605 </v>
   <v>       0.91143148       0.91651127       0.37802339 </v>
   <v>       0.16711378       0.17438989       0.43265724 </v>
   <v>       0.67069049       0.16906502       0.42747409 </v>
   <v>       0.16212517       0.66576944       0.42837660 </v>
   <v>       0.66346069       0.67013166       0.43094096 </v>
   <v>       0.40736846       0.17094624       0.42862341 </v>
   <v>       0.91874971       0.17174397       0.43074112 </v>
   <v>       0.41402705       0.66357967       0.43323285 </v>
   <v>       0.92119715       0.65957818       0.43253927 </v>
   <v>       0.16713287       0.41713746       0.42946383 </v>
   <v>       0.66778136       0.41556452       0.43627947 </v>
   <v>       0.16268563       0.92371524       0.43053809 </v>
   <v>       0.66182284       0.92397306       0.43304981 </v>
   <v>       0.42060272       0.42412311       0.43164480 </v>
   <v>       0.92017900       0.41643015       0.42974026 </v>
   <v>       0.41675746       0.92304564       0.42548978 </v>
   <v>       0.91303189       0.91967810       0.43409461 </v>
   <v>       0.99567361       0.00482783       0.45016906 </v>
   <v>       0.49424271       0.00533547       0.44958213 </v>
   <v>       0.00504139       0.49384385       0.44947522 </v>
   <v>       0.50027978       0.50486412       0.45704182 </v>
   <v>       0.25752194       0.99952419       0.44883554 </v>
   <v>       0.74645429       0.00667316       0.44862428 </v>
   <v>       0.24259361       0.50097994       0.44659613 </v>
   <v>       0.75188578       0.50286610       0.44826457 </v>
   <v>       0.00373846       0.25725314       0.45084223 </v>
   <v>       0.50013734       0.25362247       0.44157359 </v>
   <v>       0.00122396       0.75100760       0.44954507 </v>
   <v>       0.49089226       0.75960690       0.44354064 </v>
   <v>       0.24944783       0.25560797       0.45032684 </v>
   <v>       0.75354933       0.24457856       0.44982411 </v>
   <v>       0.24291792       0.74986566       0.44612576 </v>
   <v>       0.74802523       0.75464233       0.45102831 </v>
  </varray>
  <varray name="selective"  type="logical" >
   <v type="logical" >  T  T  T </v>
   <v type="logical" >  T  T  T </v>
   <v type="logical" >  T  T  T </v>
   <v type="logical" >  T  T  T </v>
   <v type="logical" >  T  T  T </v>
   <v type="logical" >  T  T  T </v>
   <v type="logical" >  T  T  T </v>
   <v type="logical" >  T  T  T </v>
   <v type="logical" >  T  T  T </v>
   <v type="logical" >  T  T  T </v>
   <v type="logical" >  T  T  T </v>
   <v type="logical" >  T  T  T </v>
   <v type="logical" >  T  T  T </v>
   <v type="logical" >  T  T  T </v>
   <v type="logical" >  T  T  T </v>
   <v type="logical" >  T  T  T </v>
   <v type="logical" >  T  T  T </v>
   <v type="logical" >  T  T  T </v>
   <v type="logical" >  T  T  T </v>
   <v type="logical" >  T  T  T </v>
   <v type="logical" >  T  T  T </v>
   <v type="logical" >  T  T  T </v>
   <v type="logical" >  T  T  T </v>
   <v type="logical" >  T  T  T </v>
   <v type="logical" >  T  T  T </v>
   <v type="logical" >  T  T  T </v>
   <v type="logical" >  T  T  T </v>
   <v type="logical" >  T  T  T </v>
   <v type="logical" >  T  T  T </v>
   <v type="logical" >  T  T  T </v>
   <v type="logical" >  T  T  T </v>
   <v type="logical" >  T  T  T </v>
   <v type="logical" >  T  T  T </v>
   <v type="logical" >  T  T  T </v>
   <v type="logical" >  T  T  T </v>
   <v type="logical" >  T  T  T </v>
   <v type="logical" >  T  T  T </v>
   <v type="logical" >  T  T  T </v>
   <v type="logical" >  T  T  T </v>
   <v type="logical" >  T  T  T </v>
   <v type="logical" >  T  T  T </v>
   <v type="logical" >  T  T  T </v>
   <v type="logical" >  T  T  T </v>
   <v type="logical" >  T  T  T </v>
   <v type="logical" >  T  T  T </v>
   <v type="logical" >  T  T  T </v>
   <v type="logical" >  T  T  T </v>
   <v type="logical" >  T  T  T </v>
   <v type="logical" >  T  T  T </v>
   <v type="logical" >  T  T  T </v>
   <v type="logical" >  T  T  T </v>
   <v type="logical" >  T  T  T </v>
   <v type="logical" >  T  T  T </v>
   <v type="logical" >  T  T  T </v>
   <v type="logical" >  T  T  T </v>
   <v type="logical" >  T  T  T </v>
   <v type="logical" >  T  T  T </v>
   <v type="logical" >  T  T  T </v>
   <v type="logical" >  T  T  T </v>
   <v type="logical" >  T  T  T </v>
   <v type="logical" >  T  T  T </v>
   <v type="logical" >  T  T  T </v>
   <v type="logical" >  T  T  T </v>
   <v type="logical" >  T  T  T </v>
   <v type="logical" >  T  T  T </v>
   <v type="logical" >  T  T  T </v>
   <v type="logical" >  T  T  T </v>
   <v type="logical" >  T  T  T </v>
   <v type="logical" >  T  T  T </v>
   <v type="logical" >  T  T  T </v>
   <v type="logical" >  T  T  T </v>
   <v type="logical" >  T  T  T </v>
   <v type="logical" >  T  T  T </v>
   <v type="logical" >  T  T  T </v>
   <v type="logical" >  T  T  T </v>
   <v type="logical" >  T  T  T </v>
   <v type="logical" >  T  T  T </v>
   <v type="logical" >  T  T  T </v>
   <v type="logical" >  T  T  T </v>
   <v type="logical" >  T  T  T </v>
   <v type="logical" >  T  T  T </v>
   <v type="logical" >  T  T  T </v>
   <v type="logical" >  T  T  T </v>
   <v type="logical" >  T  T  T </v>
   <v type="logical" >  T  T  T </v>
   <v type="logical" >  T  T  T </v>
   <v type="logical" >  T  T  T </v>
   <v type="logical" >  T  T  T </v>
   <v type="logical" >  T  T  T </v>
   <v type="logical" >  T  T  T </v>
   <v type="logical" >  T  T  T </v>
   <v type="logical" >  T  T  T </v>
   <v type="logical" >  T  T  T </v>
   <v type="logical" >  T  T  T </v>
   <v type="logical" >  T  T  T </v>
   <v type="logical" >  T  T  T </v>
   <v type="logical" >  T  T  T </v>
   <v type="logical" >  T  T  T </v>
   <v type="logical" >  T  T  T </v>
   <v type="logical" >  T  T  T </v>
   <v type="logical" >  T  T  T </v>
   <v type="logical" >  T  T  T </v>
   <v type="logical" >  T  T  T </v>
   <v type="logical" >  T  T  T </v>
   <v type="logical" >  T  T  T </v>
   <v type="logical" >  T  T  T </v>
   <v type="logical" >  T  T  T </v>
   <v type="logical" >  T  T  T </v>
   <v type="logical" >  T  T  T </v>
   <v type="logical" >  T  T  T </v>
   <v type="logical" >  T  T  T </v>
   <v type="logical" >  T  T  T </v>
   <v type="logical" >  T  T  T </v>
   <v type="logical" >  T  T  T </v>
   <v type="logical" >  T  T  T </v>
   <v type="logical" >  T  T  T </v>
   <v type="logical" >  T  T  T </v>
   <v type="logical" >  T  T  T </v>
   <v type="logical" >  F  F  F </v>
   <v type="logical" >  F  F  F </v>
   <v type="logical" >  F  F  F </v>
   <v type="logical" >  F  F  F </v>
   <v type="logical" >  F  F  F </v>
   <v type="logical" >  F  F  F </v>
   <v type="logical" >  F  F  F </v>
   <v type="logical" >  F  F  F </v>
   <v type="logical" >  F  F  F </v>
   <v type="logical" >  F  F  F </v>
   <v type="logical" >  F  F  F </v>
   <v type="logical" >  F  F  F </v>
   <v type="logical" >  F  F  F </v>
   <v type="logical" >  F  F  F </v>
   <v type="logical" >  F  F  F </v>
   <v type="logical" >  F  F  F </v>
   <v type="logical" >  F  F  F </v>
   <v type="logical" >  F  F  F </v>
   <v type="logical" >  F  F  F </v>
   <v type="logical" >  F  F  F </v>
   <v type="logical" >  F  F  F </v>
   <v type="logical" >  F  F  F </v>
   <v type="logical" >  F  F  F </v>
   <v type="logical" >  F  F  F </v>
   <v type="logical" >  F  F  F </v>
   <v type="logical" >  F  F  F </v>
   <v type="logical" >  F  F  F </v>
   <v type="logical" >  F  F  F </v>
   <v type="logical" >  F  F  F </v>
   <v type="logical" >  F  F  F </v>
   <v type="logical" >  F  F  F </v>
   <v type="logical" >  F  F  F </v>
   <v type="logical" >  F  F  F </v>
   <v type="logical" >  F  F  F </v>
   <v type="logical" >  F  F  F </v>
   <v type="logical" >  F  F  F </v>
   <v type="logical" >  F  F  F </v>
   <v type="logical" >  F  F  F </v>
   <v type="logical" >  F  F  F </v>
   <v type="logical" >  F  F  F </v>
   <v type="logical" >  F  F  F </v>
   <v type="logical" >  F  F  F </v>
   <v type="logical" >  F  F  F </v>
   <v type="logical" >  F  F  F </v>
   <v type="logical" >  F  F  F </v>
   <v type="logical" >  F  F  F </v>
   <v type="logical" >  F  F  F </v>
   <v type="logical" >  F  F  F </v>
   <v type="logical" >  F  F  F </v>
   <v type="logical" >  F  F  F </v>
   <v type="logical" >  F  F  F </v>
   <v type="logical" >  F  F  F </v>
   <v type="logical" >  F  F  F </v>
   <v type="logical" >  F  F  F </v>
   <v type="logical" >  F  F  F </v>
   <v type="logical" >  F  F  F </v>
   <v type="logical" >  F  F  F </v>
   <v type="logical" >  F  F  F </v>
   <v type="logical" >  F  F  F </v>
   <v type="logical" >  F  F  F </v>
   <v type="logical" >  F  F  F </v>
   <v type="logical" >  F  F  F </v>
   <v type="logical" >  F  F  F </v>
   <v type="logical" >  F  F  F </v>
   <v type="logical" >  T  T  T </v>
   <v type="logical" >  T  T  T </v>
   <v type="logical" >  T  T  T </v>
   <v type="logical" >  T  T  T </v>
   <v type="logical" >  T  T  T </v>
   <v type="logical" >  T  T  T </v>
   <v type="logical" >  T  T  T </v>
   <v type="logical" >  T  T  T </v>
   <v type="logical" >  T  T  T </v>
   <v type="logical" >  T  T  T </v>
   <v type="logical" >  T  T  T </v>
   <v type="logical" >  T  T  T </v>
   <v type="logical" >  T  T  T </v>
   <v type="logical" >  T  T  T </v>
   <v type="logical" >  T  T  T </v>
   <v type="logical" >  T  T  T </v>
   <v type="logical" >  T  T  T </v>
   <v type="logical" >  T  T  T </v>
   <v type="logical" >  T  T  T </v>
   <v type="logical" >  T  T  T </v>
   <v type="logical" >  T  T  T </v>
   <v type="logical" >  T  T  T </v>
   <v type="logical" >  T  T  T </v>
   <v type="logical" >  T  T  T </v>
   <v type="logical" >  T  T  T </v>
   <v type="logical" >  T  T  T </v>
   <v type="logical" >  T  T  T </v>
   <v type="logical" >  T  T  T </v>
   <v type="logical" >  T  T  T </v>
   <v type="logical" >  T  T  T </v>
   <v type="logical" >  T  T  T </v>
   <v type="logical" >  T  T  T </v>
   <v type="logical" >  T  T  T </v>
   <v type="logical" >  T  T  T </v>
   <v type="logical" >  T  T  T </v>
   <v type="logical" >  T  T  T </v>
   <v type="logical" >  T  T  T </v>
   <v type="logical" >  T  T  T </v>
   <v type="logical" >  T  T  T </v>
   <v type="logical" >  T  T  T </v>
   <v type="logical" >  T  T  T </v>
   <v type="logical" >  T  T  T </v>
   <v type="logical" >  T  T  T </v>
   <v type="logical" >  T  T  T </v>
   <v type="logical" >  T  T  T </v>
   <v type="logical" >  T  T  T </v>
   <v type="logical" >  T  T  T </v>
   <v type="logical" >  T  T  T </v>
   <v type="logical" >  T  T  T </v>
   <v type="logical" >  T  T  T </v>
   <v type="logical" >  T  T  T </v>
   <v type="logical" >  T  T  T </v>
   <v type="logical" >  T  T  T </v>
   <v type="logical" >  T  T  T </v>
   <v type="logical" >  T  T  T </v>
   <v type="logical" >  T  T  T </v>
   <v type="logical" >  T  T  T </v>
   <v type="logical" >  T  T  T </v>
   <v type="logical" >  T  T  T </v>
   <v type="logical" >  T  T  T </v>
   <v type="logical" >  T  T  T </v>
   <v type="logical" >  T  T  T </v>
   <v type="logical" >  T  T  T </v>
   <v type="logical" >  T  T  T </v>
  </varray>
  <varray name="velocities" >
   <v>       0.00020014      -0.00040008      -0.00021179 </v>
   <v>       0.00025532      -0.00018600      -0.00026690 </v>
   <v>       0.00055395      -0.00042060      -0.00010284 </v>
   <v>       0.00006647       0.00007743      -0.00016341 </v>
   <v>       0.00020322      -0.00033607      -0.00011519 </v>
   <v>       0.00055756      -0.00023510      -0.00004033 </v>
   <v>      -0.00041430      -0.00013208       0.00001638 </v>
   <v>       0.00026187       0.00029255       0.00009034 </v>
   <v>      -0.00021185      -0.00007014      -0.00010243 </v>
   <v>       0.00016344      -0.00025185      -0.00014801 </v>
   <v>       0.00011797      -0.00006277      -0.00023085 </v>
   <v>       0.00077257      -0.00089457       0.00002401 </v>
   <v>      -0.00041050       0.00027664      -0.00006357 </v>
   <v>      -0.00053247       0.00061392       0.00012405 </v>
   <v>       0.00009280       0.00148974      -0.00019679 </v>
[...]
   <v type="logical" >  F  F  F </v>
   <v type="logical" >  F  F  F </v>
   <v type="logical" >  F  F  F </v>
   <v type="logical" >  F  F  F </v>
   <v type="logical" >  F  F  F </v>
   <v type="logical" >  F  F  F </v>
   <v type="logical" >  F  F  F </v>
   <v type="logical" >  F  F  F </v>
   <v type="logical" >  F  F  F </v>
   <v type="logical" >  F  F  F </v>
   <v type="logical" >  F  F  F </v>
   <v type="logical" >  F  F  F </v>
   <v type="logical" >  F  F  F </v>
   <v type="logical" >  F  F  F </v>
   <v type="logical" >  F  F  F </v>
   <v type="logical" >  F  F  F </v>
   <v type="logical" >  F  F  F </v>
   <v type="logical" >  F  F  F </v>
   <v type="logical" >  F  F  F </v>
   <v type="logical" >  F  F  F </v>
   <v type="logical" >  F  F  F </v>
   <v type="logical" >  F  F  F </v>
   <v type="logical" >  F  F  F </v>
   <v type="logical" >  F  F  F </v>
   <v type="logical" >  F  F  F </v>
   <v type="logical" >  F  F  F </v>
   <v type="logical" >  F  F  F </v>
   <v type="logical" >  F  F  F </v>
   <v type="logical" >  F  F  F </v>
   <v type="logical" >  F  F  F </v>
   <v type="logical" >  F  F  F </v>
   <v type="logical" >  F  F  F </v>
   <v type="logical" >  F  F  F </v>
   <v type="logical" >  F  F  F </v>
   <v type="logical" >  F  F  F </v>
   <v type="logical" >  F  F  F </v>
   <v type="logical" >  F  F  F </v>
   <v type="logical" >  F  F  F </v>
   <v type="logical" >  F  F  F </v>
   <v type="logical" >  F  F  F </v>
   <v type="logical" >  F  F  F </v>
   <v type="logical" >  F  F  F </v>
   <v type="logical" >  F  F  F </v>
   <v type="logical" >  F  F  F </v>
   <v type="logical" >  F  F  F </v>
   <v type="logical" >  F  F  F </v>
   <v type="logical" >  F  F  F </v>
   <v type="logical" >  F  F  F </v>
   <v type="logical" >  F  F  F </v>
   <v type="logical" >  F  F  F </v>
   <v type="logical" >  F  F  F </v>
   <v type="logical" >  F  F  F </v>
   <v type="logical" >  T  T  T </v>
   <v type="logical" >  T  T  T </v>
   <v type="logical" >  T  T  T </v>
   <v type="logical" >  T  T  T </v>
   <v type="logical" >  T  T  T </v>
   <v type="logical" >  T  T  T </v>
   <v type="logical" >  T  T  T </v>
   <v type="logical" >  T  T  T </v>
   <v type="logical" >  T  T  T </v>
   <v type="logical" >  T  T  T </v>
   <v type="logical" >  T  T  T </v>
   <v type="logical" >  T  T  T </v>
   <v type="logical" >  T  T  T </v>
   <v type="logical" >  T  T  T </v>
   <v type="logical" >  T  T  T </v>
   <v type="logical" >  T  T  T </v>
   <v type="logical" >  T  T  T </v>
   <v type="logical" >  T  T  T </v>
   <v type="logical" >  T  T  T </v>
   <v type="logical" >  T  T  T </v>
   <v type="logical" >  T  T  T </v>
   <v type="logical" >  T  T  T </v>
   <v type="logical" >  T  T  T </v>
   <v type="logical" >  T  T  T </v>
   <v type="logical" >  T  T  T </v>
   <v type="logical" >  T  T  T </v>
   <v type="logical" >  T  T  T </v>
   <v type="logical" >  T  T  T </v>
   <v type="logical" >  T  T  T </v>
   <v type="logical" >  T  T  T </v>
   <v type="logical" >  T  T  T </v>
   <v type="logical" >  T  T  T </v>
   <v type="logical" >  T  T  T </v>
   <v type="logical" >  T  T  T </v>
   <v type="logical" >  T  T  T </v>
   <v type="logical" >  T  T  T </v>
   <v type="logical" >  T  T  T </v>
   <v type="logical" >  T  T  T </v>
   <v type="logical" >  T  T  T </v>
   <v type="logical" >  T  T  T </v>
   <v type="logical" >  T  T  T </v>
   <v type="logical" >  T  T  T </v>
   <v type="logical" >  T  T  T </v>
   <v type="logical" >  T  T  T </v>
   <v type="logical" >  T  T  T </v>
   <v type="logical" >  T  T  T </v>
   <v type="logical" >  T  T  T </v>
   <v type="logical" >  T  T  T </v>
   <v type="logical" >  T  T  T </v>
   <v type="logical" >  T  T  T </v>
   <v type="logical" >  T  T  T </v>
   <v type="logical" >  T  T  T </v>
   <v type="logical" >  T  T  T </v>
   <v type="logical" >  T  T  T </v>
   <v type="logical" >  T  T  T </v>
   <v type="logical" >  T  T  T </v>
   <v type="logical" >  T  T  T </v>
   <v type="logical" >  T  T  T </v>
   <v type="logical" >  T  T  T </v>
   <v type="logical" >  T  T  T </v>
   <v type="logical" >  T  T  T </v>
   <v type="logical" >  T  T  T </v>
   <v type="logical" >  T  T  T </v>
   <v type="logical" >  T  T  T </v>
  </varray>
  <varray name="velocities" >
   <v>      -0.00015396      -0.00026168      -0.00031754 </v>
   <v>       0.00100146      -0.00104152      -0.00018741 </v>
   <v>       0.00044675      -0.00045020      -0.00014384 </v>
   <v>      -0.00025637       0.00029651       0.00015000 </v>
   <v>      -0.00047875       0.00012287      -0.00015854 </v>
   <v>      -0.00015814      -0.00052055       0.00007073 </v>
   <v>       0.00025092      -0.00062247       0.00005642 </v>
   <v>       0.00060189      -0.00051585       0.00024003 </v>
   <v>       0.00036763      -0.00057405       0.00034940 </v>
   <v>      -0.00007310      -0.00011321       0.00034210 </v>
   <v>      -0.00017140      -0.00011553       0.00003028 </v>
   <v>      -0.00023569      -0.00009964       0.00008726 </v>
   <v>      -0.00018970       0.00004240       0.00001045 </v>
   <v>      -0.00017102       0.00033277      -0.00007488 </v>
   <v>       0.00086284       0.00020813      -0.00011940 </v>
   <v>      -0.00037508       0.00024249       0.00037888 </v>
   <v>      -0.00071954       0.00054153       0.00034738 </v>
   <v>       0.00000847      -0.00094562      -0.00030674 </v>
   <v>       0.00012631       0.00009972      -0.00025206 </v>
   <v>       0.00175151      -0.00189849      -0.00051960 </v>
   <v>       0.00084625       0.00038241       0.00032610 </v>
   <v>       0.00100856      -0.00124037      -0.00022364 </v>
   <v>       0.00072119      -0.00061201       0.00070054 </v>
   <v>       0.00105050      -0.00079870       0.00001533 </v>
   <v>       0.00011543      -0.00014735      -0.00021026 </v>
   <v>       0.00103548       0.00023783      -0.00000885 </v>
   <v>      -0.00080898      -0.00052996      -0.00009502 </v>
   <v>      -0.00056799      -0.00062893      -0.00007972 </v>
   <v>       0.00179563      -0.00004647      -0.00040166 </v>
   <v>       0.00132475      -0.00158128      -0.00012093 </v>
   <v>      -0.00013358       0.00185489       0.00021827 </v>
   <v>      -0.00036611       0.00031658       0.00004084 </v>
   <v>       0.00094640      -0.00070385       0.00018364 </v>
   <v>       0.00029734      -0.00056383      -0.00017392 </v>
   <v>       0.00007591       0.00040775      -0.00021817 </v>
   <v>       0.00124245       0.00000438       0.00012326 </v>
   <v>       0.00000417       0.00129509       0.00031316 </v>
   <v>      -0.00082164       0.00089586      -0.00051036 </v>
   <v>       0.00064430      -0.00052677       0.00000545 </v>
   <v>       0.00032681      -0.00129015      -0.00006254 </v>
   <v>       0.00013968      -0.00005913       0.00037971 </v>
   <v>       0.00116128      -0.00018218      -0.00024666 </v>
   <v>      -0.00032645       0.00124083       0.00001660 </v>
   <v>      -0.00044118      -0.00015223       0.00013204 </v>
   <v>       0.00147506       0.00046641       0.00016916 </v>
   <v>      -0.00390128       0.00373519      -0.00099065 </v>
   <v>      -0.00013695      -0.00186347       0.00000040 </v>
   <v>       0.00123699      -0.00126902      -0.00007015 </v>
   <v>      -0.00028867      -0.00040703       0.00005358 </v>
   <v>       0.00057491       0.00032917      -0.00018841 </v>
   <v>      -0.00084246       0.00109291      -0.00006533 </v>
   <v>      -0.00088790       0.00178674      -0.00018547 </v>
   <v>       0.00105528       0.00023182       0.00014758 </v>
   <v>      -0.00085405      -0.00033713      -0.00005202 </v>
   <v>      -0.00002514       0.00005202       0.00001358 </v>
   <v>       0.00026236      -0.00004545       0.00004881 </v>
   <v>      -0.00019771       0.00010313      -0.00002408 </v>
   <v>      -0.00024182       0.00016075      -0.00001669 </v>
   <v>      -0.00012388       0.00035447      -0.00002217 </v>
   <v>       0.00032182      -0.00028649      -0.00005908 </v>
   <v>      -0.00005370      -0.00032802       0.00000137 </v>
   <v>      -0.00033465       0.00009789       0.00012287 </v>
   <v>      -0.00013255       0.00024892      -0.00001797 </v>
   <v>       0.00037637      -0.00029559       0.00008553 </v>
   <v>       0.00021773       0.00003379       0.00005672 </v>
   <v>      -0.00025935      -0.00009503      -0.00002386 </v>
   <v>      -0.00020516      -0.00000991      -0.00000450 </v>
   <v>      -0.00009503       0.00010463       0.00001038 </v>
   <v>       0.00024152      -0.00026579       0.00002475 </v>
   <v>      -0.00010929       0.00012425      -0.00003843 </v>
   <v>       0.00000536       0.00015628      -0.00009242 </v>
   <v>       0.00019798      -0.00018415      -0.00007243 </v>
   <v>      -0.00015485      -0.00011960       0.00002062 </v>
   <v>      -0.00014974       0.00021252      -0.00004100 </v>
   <v>      -0.00012575       0.00032774       0.00005462 </v>
   <v>       0.00001872      -0.00005912       0.00002541 </v>
   <v>      -0.00007736       0.00014313       0.00005241 </v>
   <v>       0.00007229      -0.00014277      -0.00002154 </v>
   <v>      -0.00001088      -0.00011079       0.00004708 </v>
   <v>      -0.00014645      -0.00000734      -0.00008153 </v>
   <v>       0.00014253      -0.00015717       0.00000266 </v>
   <v>       0.00013688      -0.00017752      -0.00006537 </v>
   <v>       0.00007216       0.00014893       0.00007946 </v>
   <v>       0.00007129      -0.00008953       0.00002601 </v>
   <v>      -0.00000318      -0.00010230      -0.00003432 </v>
   <v>      -0.00004862       0.00017539       0.00003124 </v>
   <v>      -0.00000834      -0.00035092      -0.00005479 </v>
   <v>       0.00024750      -0.00002584       0.00003363 </v>
   <v>      -0.00013508       0.00021408       0.00004761 </v>
   <v>       0.00016123      -0.00004811      -0.00005026 </v>
   <v>       0.00015249       0.00001417       0.00001372 </v>
   <v>       0.00001213      -0.00019883       0.00003950 </v>
   <v>      -0.00002565       0.00010359       0.00003059 </v>
   <v>       0.00023527      -0.00062497       0.00001171 </v>
   <v>       0.00013981      -0.00019330      -0.00002933 </v>
   <v>      -0.00051986       0.00058557       0.00002380 </v>
   <v>       0.00004941      -0.00009713      -0.00006843 </v>
   <v>      -0.00012242       0.00020933      -0.00002289 </v>
   <v>      -0.00004666      -0.00002883       0.00003184 </v>
   <v>      -0.00008256       0.00022188      -0.00000821 </v>
   <v>       0.00045962       0.00002728       0.00007339 </v>
   <v>       0.00025095      -0.00007562      -0.00002999 </v>
   <v>       0.00012715      -0.00034556      -0.00004535 </v>
   <v>       0.00031389      -0.00001985       0.00002895 </v>
   <v>       0.00009960      -0.00040916      -0.00006871 </v>
   <v>      -0.00018296      -0.00000657      -0.00005003 </v>
   <v>      -0.00031074       0.00016800      -0.00011748 </v>
   <v>      -0.00014985       0.00015617       0.00009258 </v>
   <v>       0.00030848       0.00002978      -0.00009378 </v>
   <v>      -0.00003953       0.00006261       0.00009333 </v>
   <v>      -0.00006827       0.00012968       0.00001039 </v>
   <v>       0.00010594      -0.00031171      -0.00002934 </v>
   <v>      -0.00007487      -0.00009530      -0.00002169 </v>
   <v>      -0.00008011       0.00030455       0.00005973 </v>
   <v>       0.00006153      -0.00011549       0.00001531 </v>
   <v>      -0.00013201       0.00029943      -0.00004542 </v>
   <v>       0.00022322      -0.00011076       0.00000814 </v>
   <v>       0.00001761       0.00001384      -0.00001368 </v>
   <v>       0.00000000       0.00000000       0.00000000 </v>
   <v>       0.00000000       0.00000000       0.00000000 </v>
   <v>       0.00000000       0.00000000       0.00000000 </v>
   <v>       0.00000000       0.00000000       0.00000000 </v>
   <v>       0.00000000       0.00000000       0.00000000 </v>
   <v>       0.00000000       0.00000000       0.00000000 </v>
   <v>       0.00000000       0.00000000       0.00000000 </v>
   <v>       0.00000000       0.00000000       0.00000000 </v>
   <v>       0.00000000       0.00000000       0.00000000 </v>
   <v>       0.00000000       0.00000000       0.00000000 </v>
   <v>       0.00000000       0.00000000       0.00000000 </v>
   <v>       0.00000000       0.00000000       0.00000000 </v>
   <v>       0.00000000       0.00000000       0.00000000 </v>
   <v>       0.00000000       0.00000000       0.00000000 </v>
   <v>       0.00000000       0.00000000       0.00000000 </v>
   <v>       0.00000000       0.00000000       0.00000000 </v>
   <v>       0.00000000       0.00000000       0.00000000 </v>
   <v>       0.00000000       0.00000000       0.00000000 </v>
   <v>       0.00000000       0.00000000       0.00000000 </v>
   <v>       0.00000000       0.00000000       0.00000000 </v>
   <v>       0.00000000       0.00000000       0.00000000 </v>
   <v>       0.00000000       0.00000000       0.00000000 </v>
   <v>       0.00000000       0.00000000       0.00000000 </v>
   <v>       0.00000000       0.00000000       0.00000000 </v>
   <v>       0.00000000       0.00000000       0.00000000 </v>
   <v>       0.00000000       0.00000000       0.00000000 </v>
   <v>       0.00000000       0.00000000       0.00000000 </v>
   <v>       0.00000000       0.00000000       0.00000000 </v>
   <v>       0.00000000       0.00000000       0.00000000 </v>
   <v>       0.00000000       0.00000000       0.00000000 </v>
   <v>       0.00000000       0.00000000       0.00000000 </v>
   <v>       0.00000000       0.00000000       0.00000000 </v>
   <v>       0.00000000       0.00000000       0.00000000 </v>
   <v>       0.00000000       0.00000000       0.00000000 </v>
   <v>       0.00000000       0.00000000       0.00000000 </v>
   <v>       0.00000000       0.00000000       0.00000000 </v>
   <v>       0.00000000       0.00000000       0.00000000 </v>
   <v>       0.00000000       0.00000000       0.00000000 </v>
   <v>       0.00000000       0.00000000       0.00000000 </v>
   <v>       0.00000000       0.00000000       0.00000000 </v>
   <v>       0.00000000       0.00000000       0.00000000 </v>
   <v>       0.00000000       0.00000000       0.00000000 </v>
   <v>       0.00000000       0.00000000       0.00000000 </v>
   <v>       0.00000000       0.00000000       0.00000000 </v>
   <v>       0.00000000       0.00000000       0.00000000 </v>
   <v>       0.00000000       0.00000000       0.00000000 </v>
   <v>       0.00000000       0.00000000       0.00000000 </v>
   <v>       0.00000000       0.00000000       0.00000000 </v>
   <v>       0.00000000       0.00000000       0.00000000 </v>
   <v>       0.00000000       0.00000000       0.00000000 </v>
   <v>       0.00000000       0.00000000       0.00000000 </v>
   <v>       0.00000000       0.00000000       0.00000000 </v>
   <v>       0.00000000       0.00000000       0.00000000 </v>
   <v>       0.00000000       0.00000000       0.00000000 </v>
   <v>       0.00000000       0.00000000       0.00000000 </v>
   <v>       0.00000000       0.00000000       0.00000000 </v>
   <v>       0.00000000       0.00000000       0.00000000 </v>
   <v>       0.00000000       0.00000000       0.00000000 </v>
   <v>       0.00000000       0.00000000       0.00000000 </v>
   <v>       0.00000000       0.00000000       0.00000000 </v>
   <v>       0.00000000       0.00000000       0.00000000 </v>
   <v>       0.00000000       0.00000000       0.00000000 </v>
   <v>       0.00000000       0.00000000       0.00000000 </v>
   <v>       0.00000000       0.00000000       0.00000000 </v>
   <v>      -0.00011594       0.00001095       0.00010100 </v>
   <v>       0.00010846       0.00006127      -0.00002650 </v>
   <v>       0.00029544      -0.00009925      -0.00002838 </v>
   <v>       0.00017336       0.00025679       0.00004552 </v>
   <v>       0.00020328      -0.00028645      -0.00006907 </v>
   <v>      -0.00007189       0.00027912      -0.00007376 </v>
   <v>      -0.00021780      -0.00001132      -0.00000015 </v>
   <v>       0.00007295      -0.00042681       0.00006501 </v>
   <v>       0.00003396      -0.00001205       0.00002943 </v>
   <v>      -0.00004469       0.00012688       0.00000789 </v>
   <v>       0.00009084       0.00002508       0.00004135 </v>
   <v>      -0.00053546       0.00009450       0.00001291 </v>
   <v>      -0.00011371       0.00034477       0.00006418 </v>
   <v>      -0.00005055      -0.00024772       0.00002393 </v>
   <v>       0.00014841      -0.00007544      -0.00003329 </v>
   <v>      -0.00016618       0.00025421       0.00005207 </v>
   <v>      -0.00009450       0.00024264       0.00004741 </v>
   <v>      -0.00027225      -0.00002138       0.00005821 </v>
   <v>      -0.00001933       0.00006579       0.00002991 </v>
   <v>      -0.00003645      -0.00021879      -0.00002205 </v>
   <v>       0.00005778      -0.00019302       0.00007349 </v>
   <v>      -0.00008063      -0.00020339      -0.00002841 </v>
   <v>      -0.00019260       0.00004369       0.00004149 </v>
   <v>      -0.00002817       0.00010514       0.00005371 </v>
   <v>      -0.00040276       0.00021672      -0.00000351 </v>
   <v>      -0.00014148       0.00023300      -0.00002942 </v>
   <v>       0.00025923      -0.00016022       0.00000917 </v>
   <v>       0.00013478       0.00005027      -0.00003040 </v>
   <v>      -0.00004073      -0.00015267       0.00002505 </v>
   <v>       0.00013574       0.00004621       0.00003322 </v>
   <v>       0.00016567       0.00002362      -0.00008223 </v>
   <v>       0.00010286      -0.00004107       0.00007176 </v>
   <v>      -0.00006025      -0.00018771      -0.00001014 </v>
   <v>       0.00002042      -0.00014792       0.00013218 </v>
   <v>       0.00020187      -0.00003506       0.00003614 </v>
   <v>       0.00005009       0.00008035       0.00002231 </v>
   <v>       0.00023843       0.00011366       0.00018419 </v>
   <v>       0.00011310       0.00009488       0.00011840 </v>
   <v>       0.00034650      -0.00040533       0.00004431 </v>
   <v>      -0.00006291       0.00011058       0.00012970 </v>
   <v>       0.00026382      -0.00017327       0.00012109 </v>
   <v>      -0.00038480       0.00021451      -0.00001831 </v>
   <v>       0.00050808      -0.00047225       0.00015658 </v>
   <v>      -0.00009834       0.00000830       0.00001519 </v>
   <v>       0.00014068       0.00013699       0.00009864 </v>
   <v>      -0.00054273       0.00021462      -0.00008619 </v>
   <v>      -0.00009341      -0.00020849      -0.00002013 </v>
   <v>       0.00010617       0.00003164      -0.00005380 </v>
   <v>      -0.00019923      -0.00001544      -0.00003907 </v>
   <v>       0.00023456      -0.00005366       0.00007100 </v>
   <v>       0.00014473      -0.00015674      -0.00002770 </v>
   <v>       0.00005902       0.00017018       0.00005365 </v>
   <v>       0.00007648       0.00005586       0.00011575 </v>
   <v>      -0.00014648       0.00013610       0.00006718 </v>
   <v>       0.00025515      -0.00005672       0.00014501 </v>
   <v>       0.00016068      -0.00009089       0.00015511 </v>
   <v>      -0.00021763       0.00007239       0.00001475 </v>
   <v>       0.00001497      -0.00016296       0.00013280 </v>
   <v>      -0.00005796      -0.00001325       0.00002825 </v>
   <v>       0.00008086      -0.00041510       0.00002813 </v>
   <v>      -0.00027517       0.00020315       0.00002823 </v>
   <v>       0.00012160       0.00002668       0.00004391 </v>
   <v>       0.00017159      -0.00009640       0.00007124 </v>
   <v>       0.00017942      -0.00040968       0.00001545 </v>
  </varray>
  <nose>
   <v>      -1.00000000       0.00000000     300.00000000     300.00000000 </v>
  </nose>
 </structure>
</modeling>
