<?xml version="1.0" encoding="ISO-8859-1"?>
<modeling>
 <generator>
  <i name="program" type="string">vasp </i>
  <i name="version" type="string">6.3.2  </i>
  <i name="subversion" type="string">27Jun22 (build Oct 28 2022 14:47:18) complex                          parallel </i>
  <i name="platform" type="string">LinuxIFC </i>
  <i name="date" type="string">2023 04 22 </i>
  <i name="time" type="string">20:24:05 </i>
 </generator>
 <incar>
  <i type="string" name="SYSTEM">Si_surface_6layer</i>
  <i type="string" name="PREC">Accurate</i>
  <i type="int" name="NELMIN">     5</i>
  <i type="int" name="IBRION">     0</i>
  <i name="EDIFF">      0.00010000</i>
  <i name="EDIFFG">     -0.00950000</i>
  <i type="int" name="NSW">   100</i>
  <i type="int" name="ISIF">     2</i>
  <i type="int" name="ISYM">     0</i>
  <i name="ENCUT">    540.00000000</i>
  <i type="int" name="NBANDS">   640</i>
  <i name="POTIM">      1.00000000</i>
  <i name="TEBEG">    300.00000000</i>
  <i name="SMASS">     -1.00000000</i>
  <i type="int" name="ISMEAR">     0</i>
  <i name="SIGMA">      0.01000000</i>
  <i type="int" name="NWRITE">     1</i>
  <i type="int" name="IDIPOL">     3</i>
  <i type="int" name="IVDW">    12</i>
  <i type="int" name="MDALGO">     2</i>
 </incar>
 <primitive_cell>
  <structure name="primitive_cell" >
   <crystal>
    <varray name="basis" >
     <v>      15.33298779       0.00000000       0.00000000 </v>
     <v>       7.66649389      13.27875694       0.00000000 </v>
     <v>       0.00000000       0.00000000      41.55799484 </v>
    </varray>
    <i name="volume">   8461.33316923 </i>
    <varray name="rec_basis" >
     <v>       0.06521886      -0.03765413       0.00000000 </v>
     <v>       0.00000000       0.07530825       0.00000000 </v>
     <v>       0.00000000       0.00000000       0.02406276 </v>
    </varray>
   </crystal>
   <varray name="positions" >
    <v>       0.63461371       0.40884329       0.57599703 </v>
    <v>       0.57181674       0.37367582       0.56492148 </v>
    <v>       0.63480076       0.49032221       0.55985496 </v>
    <v>       0.51270621       0.41831694       0.53592782 </v>
    <v>       0.54680742       0.46907869       0.51518699 </v>
    <v>       0.59524085       0.51794440       0.52863164 </v>
    <v>       0.66454646       0.55196392       0.57691189 </v>
    <v>       0.64572348       0.64218742       0.56467078 </v>
    <v>       0.60821881       0.66859956       0.53299433 </v>
    <v>       0.59020412       0.60407400       0.51497671 </v>
    <v>       0.53179179       0.32576136       0.58583385 </v>
    <v>       0.43287804       0.34298832       0.58236569 </v>
    <v>       0.36929672       0.40732084       0.55777725 </v>
    <v>       0.41519428       0.43103845       0.53355500 </v>
    <v>       0.56912758       0.27873526       0.60663603 </v>
    <v>       0.40232765       0.30702867       0.59720605 </v>
    <v>       0.28967105       0.43478415       0.55698889 </v>
    <v>       0.36927648       0.48127067       0.51363492 </v>
    <v>       0.66282400       0.39981620       0.60047597 </v>
    <v>       0.55270200       0.63402848       0.49283289 </v>
    <v>       0.59689882       0.73626945       0.52113958 </v>
    <v>       0.68781406       0.53609618       0.60239208 </v>
    <v>       0.64805376       0.70060427       0.57796875 </v>
    <v>       0.00098383       0.00444128       0.02363567 </v>
    <v>       0.47955215       0.00320854       0.01590283 </v>
    <v>       0.98247818       0.52050444       0.01891430 </v>
    <v>       0.49084019       0.48669914       0.02089696 </v>
    <v>       0.25182558       0.99598374       0.02219201 </v>
    <v>       0.75783645       0.98266357       0.01890014 </v>
    <v>       0.24729893       0.51246520       0.01806240 </v>
    <v>       0.76217869       0.48584598       0.02424191 </v>
    <v>       0.99871010       0.24218073       0.02130506 </v>
    <v>       0.47588455       0.27637575       0.02308682 </v>
    <v>       0.99163150       0.76055149       0.02021573 </v>
    <v>       0.47445424       0.76361944       0.02078385 </v>
    <v>       0.25463679       0.25524045       0.01984875 </v>
    <v>       0.73916783       0.23912758       0.02285627 </v>
    <v>       0.26539101       0.74088069       0.01702728 </v>
    <v>       0.75978874       0.74870153       0.02159714 </v>
    <v>       0.00307723       0.00889917       0.48645798 </v>
    <v>       0.48934528       0.02245938       0.48846320 </v>
    <v>       0.99932761       0.51612488       0.48752636 </v>
    <v>       0.24740734       0.99635254       0.48918428 </v>
    <v>       0.75709468       0.98988490       0.48802841 </v>
    <v>       0.24675487       0.48237436       0.49199860 </v>
    <v>       0.72018432       0.52005146       0.49374157 </v>
    <v>       0.01623029       0.24996420       0.49082120 </v>
    <v>       0.48809524       0.23154543       0.49195868 </v>
    <v>       0.99886650       0.75464448       0.48604194 </v>
    <v>       0.49095667       0.77977553       0.48914999 </v>
    <v>       0.26611076       0.24661882       0.48658461 </v>
    <v>       0.75011599       0.24464717       0.49108379 </v>
    <v>       0.23621779       0.75898628       0.49306761 </v>
    <v>       0.75702775       0.75874433       0.48617099 </v>
    <v>       0.99624627       0.00761814       0.06001262 </v>
    <v>       0.49185248       0.00010261       0.05241814 </v>
    <v>       0.99117765       0.50718942       0.05482802 </v>
    <v>       0.50251656       0.49438106       0.05660372 </v>
    <v>       0.24552573       0.00549386       0.05897718 </v>
    <v>       0.74275312       0.99977489       0.05510554 </v>
    <v>       0.25208678       0.50685101       0.05466082 </v>
    <v>       0.74750696       0.50055392       0.06023194 </v>
    <v>       0.99394678       0.25621073       0.05719312 </v>
    <v>       0.49725269       0.24912452       0.05837385 </v>
    <v>       0.99005944       0.75891577       0.05704975 </v>
    <v>       0.49718173       0.74760802       0.05670702 </v>
    <v>       0.24195794       0.25839017       0.05560896 </v>
    <v>       0.74829470       0.24391508       0.05858533 </v>
    <v>       0.25630237       0.74850843       0.05413664 </v>
    <v>       0.74710974       0.75022657       0.05769579 </v>
    <v>       0.82730534       0.83478355       0.07669365 </v>
    <v>       0.32340269       0.84452189       0.07603671 </v>
    <v>       0.83060738       0.33252229       0.07684694 </v>
    <v>       0.33072929       0.33582617       0.07454952 </v>
    <v>       0.08599364       0.83311599       0.07129613 </v>
    <v>       0.57816366       0.83368225       0.07224667 </v>
    <v>       0.07044911       0.34627715       0.07574165 </v>
    <v>       0.58311624       0.33184918       0.07631676 </v>
    <v>       0.82961496       0.07958260       0.07674248 </v>
    <v>       0.32980764       0.09109562       0.07576669 </v>
    <v>       0.82979772       0.58840280       0.07574349 </v>
    <v>       0.32743392       0.58684035       0.07677991 </v>
    <v>       0.07588047       0.09381322       0.07585332 </v>
    <v>       0.58181555       0.07863373       0.07332262 </v>
    <v>       0.08081426       0.58694321       0.07213657 </v>
    <v>       0.57893905       0.58075980       0.07655990 </v>
    <v>       0.83621985       0.82830904       0.13210217 </v>
    <v>       0.33313393       0.83464340       0.13230381 </v>
    <v>       0.82315029       0.34119750       0.13243582 </v>
    <v>       0.33209927       0.32621739       0.13202495 </v>
    <v>       0.08028164       0.83512985       0.12944262 </v>
    <v>       0.58616667       0.83873231       0.12854316 </v>
    <v>       0.08647541       0.33474982       0.13273204 </v>
    <v>       0.58253402       0.33033715       0.13100824 </v>
    <v>       0.83468520       0.08786397       0.13330137 </v>
    <v>       0.33466800       0.07520092       0.13229155 </v>
    <v>       0.82276351       0.58660224       0.13242898 </v>
    <v>       0.32754467       0.58270043       0.13237116 </v>
    <v>       0.08238481       0.08871599       0.13259225 </v>
    <v>       0.59183282       0.07905351       0.12953718 </v>
    <v>       0.07886537       0.58843828       0.13001926 </v>
    <v>       0.57722595       0.58996655       0.13076251 </v>
    <v>       0.65689890       0.67742957       0.15021016 </v>
    <v>       0.15763269       0.67449793       0.14992077 </v>
    <v>       0.67175256       0.16545212       0.14997151 </v>
    <v>       0.16521590       0.17104023       0.15174932 </v>
    <v>       0.91985993       0.65589689       0.15019870 </v>
    <v>       0.41540521       0.66423406       0.15097346 </v>
    <v>       0.91241846       0.17683132       0.15191161 </v>
    <v>       0.42125190       0.15876347       0.14947414 </v>
    <v>       0.67030621       0.91650626       0.15078697 </v>
    <v>       0.16591369       0.91950871       0.15074117 </v>
    <v>       0.65270495       0.42490373       0.15085681 </v>
    <v>       0.17065834       0.41778408       0.15007389 </v>
    <v>       0.91311090       0.91736125       0.15011744 </v>
    <v>       0.42397198       0.91076200       0.15090352 </v>
    <v>       0.91402389       0.41967273       0.15091471 </v>
    <v>       0.41358952       0.41392168       0.14961791 </v>
    <v>       0.66691256       0.66650248       0.20705400 </v>
    <v>       0.16691388       0.66649014       0.20705898 </v>
    <v>       0.66690344       0.16650572       0.20706598 </v>
    <v>       0.16684061       0.16660814       0.20708179 </v>
    <v>       0.91692531       0.66649854       0.20705917 </v>
    <v>       0.41692519       0.66647869       0.20706536 </v>
    <v>       0.91692513       0.16650243       0.20707472 </v>
    <v>       0.41696414       0.16651435       0.20706744 </v>
    <v>       0.66691798       0.91648233       0.20704252 </v>
    <v>       0.16694951       0.91644073       0.20704633 </v>
    <v>       0.66691595       0.41648963       0.20705459 </v>
    <v>       0.16692059       0.41647589       0.20705572 </v>
    <v>       0.91694874       0.91646326       0.20705239 </v>
    <v>       0.41701031       0.91640425       0.20704821 </v>
    <v>       0.91693836       0.41649175       0.20706075 </v>
    <v>       0.41692036       0.41647944       0.20706344 </v>
    <v>       0.50027961       0.49979386       0.22588077 </v>
    <v>       0.00028667       0.49982324       0.22588116 </v>
    <v>       0.50028664       0.99980050       0.22585523 </v>
    <v>       0.00032078       0.99976605       0.22586109 </v>
    <v>       0.75028151       0.49981755       0.22585414 </v>
    <v>       0.25025454       0.49979892       0.22586794 </v>
    <v>       0.75028825       0.99977207       0.22584361 </v>
    <v>       0.25032210       0.99981099       0.22577891 </v>
    <v>       0.50031888       0.74973106       0.22591361 </v>
    <v>       0.00028389       0.74979836       0.22589213 </v>
    <v>       0.50029421       0.24984773       0.22593303 </v>
    <v>       0.00016690       0.24989246       0.22594903 </v>
    <v>       0.75026935       0.74982309       0.22586657 </v>
    <v>       0.25028658       0.74977243       0.22589330 </v>
    <v>       0.75025457       0.24982803       0.22588788 </v>
    <v>       0.25034884       0.24982284       0.22589789 </v>
    <v>       0.50049311       0.49963021       0.28230625 </v>
    <v>       0.00050731       0.49968964       0.28230852 </v>
    <v>       0.50051337       0.99962586       0.28226966 </v>
    <v>       0.00059072       0.99956340       0.28227770 </v>
    <v>       0.75046229       0.49970725       0.28226706 </v>
    <v>       0.25044429       0.49965557       0.28228563 </v>
    <v>       0.75051129       0.99957675       0.28225109 </v>
    <v>       0.25060219       0.99960679       0.28215271 </v>
    <v>       0.50056702       0.74950278       0.28235546 </v>
    <v>       0.00050130       0.74963838       0.28232342 </v>
    <v>       0.50053847       0.24974354       0.28238246 </v>
    <v>       0.00022542       0.24985044       0.28240287 </v>
    <v>       0.75046211       0.74969256       0.28228703 </v>
    <v>       0.25051790       0.74957991       0.28232458 </v>
    <v>       0.75041085       0.24970731       0.28231668 </v>
    <v>       0.25066370       0.24970363       0.28232852 </v>
    <v>       0.33391163       0.33313787       0.30122888 </v>
    <v>       0.83340478       0.33325410       0.30123815 </v>
    <v>       0.33380580       0.83306384       0.30105916 </v>
    <v>       0.83384037       0.83295310       0.30113372 </v>
    <v>       0.58387220       0.33310598       0.30124068 </v>
    <v>       0.08398666       0.33295631       0.30108732 </v>
    <v>       0.58382905       0.83298177       0.30112001 </v>
    <v>       0.08388577       0.83291119       0.30115694 </v>
    <v>       0.33384538       0.58284026       0.30112976 </v>
    <v>       0.83381855       0.58302647       0.30109686 </v>
    <v>       0.33384517       0.08289958       0.30104592 </v>
    <v>       0.83388197       0.08288339       0.30102268 </v>
    <v>       0.58398402       0.58273447       0.30118588 </v>
    <v>       0.08386202       0.58297580       0.30116987 </v>
    <v>       0.58390039       0.08290785       0.30108312 </v>
    <v>       0.08406826       0.08289581       0.30098030 </v>
    <v>       0.33210385       0.33726808       0.35757413 </v>
    <v>       0.82909044       0.33238276       0.35800594 </v>
    <v>       0.32589314       0.83909339       0.35956629 </v>
    <v>       0.83127237       0.83805215       0.35881369 </v>
    <v>       0.57499887       0.34026397       0.35824375 </v>
    <v>       0.07436160       0.33683703       0.35819948 </v>
    <v>       0.58033150       0.83371375       0.35772280 </v>
    <v>       0.08403039       0.83544282       0.35805521 </v>
    <v>       0.33632820       0.58305369       0.35807218 </v>
    <v>       0.83275840       0.58129211       0.35821144 </v>
    <v>       0.33356114       0.08288670       0.35671526 </v>
    <v>       0.83267089       0.08948993       0.35905099 </v>
    <v>       0.58746603       0.58259324       0.36076302 </v>
    <v>       0.08562254       0.58803183       0.35678960 </v>
    <v>       0.58688910       0.08662491       0.35777500 </v>
    <v>       0.08033082       0.09199241       0.35800638 </v>
    <v>       0.17079318       0.16942984       0.37503755 </v>
    <v>       0.66284755       0.17441191       0.37880012 </v>
    <v>       0.17129002       0.66691870       0.37842240 </v>
    <v>       0.66900419       0.67106718       0.37806978 </v>
    <v>       0.41981406       0.16837640       0.37430952 </v>
    <v>       0.91486272       0.17223679       0.37970320 </v>
    <v>       0.42054686       0.66706779       0.38074428 </v>
    <v>       0.91640285       0.66989439       0.37437013 </v>
    <v>       0.16678630       0.41716338       0.37738999 </v>
    <v>       0.66335192       0.41697066       0.38171154 </v>
    <v>       0.15264597       0.92905987       0.37623277 </v>
    <v>       0.66285852       0.91829666       0.37489656 </v>
    <v>       0.41476572       0.42141068       0.37948566 </v>
    <v>       0.90667918       0.41896731       0.37749337 </v>
    <v>       0.41448087       0.91719994       0.37824492 </v>
    <v>       0.91825828       0.92065855       0.37637244 </v>
    <v>       0.16315704       0.17420416       0.43342787 </v>
    <v>       0.66419315       0.16942756       0.43553718 </v>
    <v>       0.17188067       0.66168740       0.43617250 </v>
    <v>       0.66742472       0.67051504       0.43680296 </v>
    <v>       0.40676635       0.16973378       0.43021932 </v>
    <v>       0.91369671       0.17287629       0.43488956 </v>
    <v>       0.41402785       0.67132594       0.44212973 </v>
    <v>       0.91887470       0.66900645       0.43106629 </v>
    <v>       0.16284129       0.42424701       0.43290359 </v>
    <v>       0.65548267       0.42683652       0.44040100 </v>
    <v>       0.16659008       0.92438849       0.43320865 </v>
    <v>       0.66763509       0.91776368       0.43292191 </v>
    <v>       0.41441827       0.41918438       0.44126026 </v>
    <v>       0.91192988       0.42209936       0.43422575 </v>
    <v>       0.42100246       0.91951670       0.43500013 </v>
    <v>       0.91780636       0.91466902       0.43209028 </v>
    <v>       0.99849104       0.00342646       0.45038102 </v>
    <v>       0.49758573       0.01075706       0.45191652 </v>
    <v>       0.99757058       0.50351287       0.45171033 </v>
    <v>       0.49888309       0.50135377       0.46731548 </v>
    <v>       0.24860505       0.00913791       0.45345362 </v>
    <v>       0.75495460       0.99776159       0.45176270 </v>
    <v>       0.24109449       0.49892193       0.45824903 </v>
    <v>       0.74423445       0.50442927       0.45570388 </v>
    <v>       0.00047061       0.25963648       0.45526260 </v>
    <v>       0.49442694       0.24669715       0.45546372 </v>
    <v>       0.00267416       0.75229770       0.44976263 </v>
    <v>       0.50258912       0.75550227       0.45489975 </v>
    <v>       0.24739015       0.25552332       0.45093815 </v>
    <v>       0.74800346       0.24971211       0.45521530 </v>
    <v>       0.24441858       0.75551130       0.45681119 </v>
    <v>       0.75457001       0.75759344       0.45019443 </v>
   </varray>
  </structure>
  <varray name="primitive_index" >
   <v type="int" >        1 </v>
   <v type="int" >        2 </v>
   <v type="int" >        3 </v>
   <v type="int" >        4 </v>
   <v type="int" >        5 </v>
   <v type="int" >        6 </v>
   <v type="int" >        7 </v>
   <v type="int" >        8 </v>
   <v type="int" >        9 </v>
   <v type="int" >       10 </v>
   <v type="int" >       11 </v>
   <v type="int" >       12 </v>
   <v type="int" >       13 </v>
   <v type="int" >       14 </v>
   <v type="int" >       15 </v>
   <v type="int" >       16 </v>
   <v type="int" >       17 </v>
   <v type="int" >       18 </v>
   <v type="int" >       19 </v>
   <v type="int" >       20 </v>
   <v type="int" >       21 </v>
   <v type="int" >       22 </v>
   <v type="int" >       23 </v>
   <v type="int" >       24 </v>
   <v type="int" >       25 </v>
   <v type="int" >       26 </v>
   <v type="int" >       27 </v>
   <v type="int" >       28 </v>
   <v type="int" >       29 </v>
   <v type="int" >       30 </v>
   <v type="int" >       31 </v>
   <v type="int" >       32 </v>
   <v type="int" >       33 </v>
   <v type="int" >       34 </v>
   <v type="int" >       35 </v>
   <v type="int" >       36 </v>
   <v type="int" >       37 </v>
   <v type="int" >       38 </v>
   <v type="int" >       39 </v>
   <v type="int" >       40 </v>
   <v type="int" >       41 </v>
   <v type="int" >       42 </v>
   <v type="int" >       43 </v>
   <v type="int" >       44 </v>
   <v type="int" >       45 </v>
   <v type="int" >       46 </v>
   <v type="int" >       47 </v>
   <v type="int" >       48 </v>
   <v type="int" >       49 </v>
   <v type="int" >       50 </v>
   <v type="int" >       51 </v>
   <v type="int" >       52 </v>
   <v type="int" >       53 </v>
   <v type="int" >       54 </v>
   <v type="int" >       55 </v>
   <v type="int" >       56 </v>
   <v type="int" >       57 </v>
   <v type="int" >       58 </v>
   <v type="int" >       59 </v>
   <v type="int" >       60 </v>
   <v type="int" >       61 </v>
   <v type="int" >       62 </v>
   <v type="int" >       63 </v>
   <v type="int" >       64 </v>
   <v type="int" >       65 </v>
   <v type="int" >       66 </v>
   <v type="int" >       67 </v>
   <v type="int" >       68 </v>
   <v type="int" >       69 </v>
   <v type="int" >       70 </v>
   <v type="int" >       71 </v>
   <v type="int" >       72 </v>
   <v type="int" >       73 </v>
   <v type="int" >       74 </v>
   <v type="int" >       75 </v>
   <v type="int" >       76 </v>
   <v type="int" >       77 </v>
   <v type="int" >       78 </v>
   <v type="int" >       79 </v>
   <v type="int" >       80 </v>
   <v type="int" >       81 </v>
   <v type="int" >       82 </v>
   <v type="int" >       83 </v>
   <v type="int" >       84 </v>
   <v type="int" >       85 </v>
   <v type="int" >       86 </v>
   <v type="int" >       87 </v>
   <v type="int" >       88 </v>
   <v type="int" >       89 </v>
   <v type="int" >       90 </v>
   <v type="int" >       91 </v>
   <v type="int" >       92 </v>
   <v type="int" >       93 </v>
   <v type="int" >       94 </v>
   <v type="int" >       95 </v>
   <v type="int" >       96 </v>
   <v type="int" >       97 </v>
   <v type="int" >       98 </v>
   <v type="int" >       99 </v>
   <v type="int" >      100 </v>
   <v type="int" >      101 </v>
   <v type="int" >      102 </v>
   <v type="int" >      103 </v>
   <v type="int" >      104 </v>
   <v type="int" >      105 </v>
   <v type="int" >      106 </v>
   <v type="int" >      107 </v>
   <v type="int" >      108 </v>
   <v type="int" >      109 </v>
   <v type="int" >      110 </v>
   <v type="int" >      111 </v>
   <v type="int" >      112 </v>
   <v type="int" >      113 </v>
   <v type="int" >      114 </v>
   <v type="int" >      115 </v>
   <v type="int" >      116 </v>
   <v type="int" >      117 </v>
   <v type="int" >      118 </v>
   <v type="int" >      119 </v>
   <v type="int" >      120 </v>
   <v type="int" >      121 </v>
   <v type="int" >      122 </v>
   <v type="int" >      123 </v>
   <v type="int" >      124 </v>
   <v type="int" >      125 </v>
   <v type="int" >      126 </v>
   <v type="int" >      127 </v>
   <v type="int" >      128 </v>
   <v type="int" >      129 </v>
   <v type="int" >      130 </v>
   <v type="int" >      131 </v>
   <v type="int" >      132 </v>
   <v type="int" >      133 </v>
   <v type="int" >      134 </v>
   <v type="int" >      135 </v>
   <v type="int" >      136 </v>
   <v type="int" >      137 </v>
   <v type="int" >      138 </v>
   <v type="int" >      139 </v>
   <v type="int" >      140 </v>
   <v type="int" >      141 </v>
   <v type="int" >      142 </v>
   <v type="int" >      143 </v>
   <v type="int" >      144 </v>
   <v type="int" >      145 </v>
   <v type="int" >      146 </v>
   <v type="int" >      147 </v>
   <v type="int" >      148 </v>
   <v type="int" >      149 </v>
   <v type="int" >      150 </v>
   <v type="int" >      151 </v>
   <v type="int" >      152 </v>
   <v type="int" >      153 </v>
   <v type="int" >      154 </v>
   <v type="int" >      155 </v>
   <v type="int" >      156 </v>
   <v type="int" >      157 </v>
   <v type="int" >      158 </v>
   <v type="int" >      159 </v>
   <v type="int" >      160 </v>
   <v type="int" >      161 </v>
   <v type="int" >      162 </v>
   <v type="int" >      163 </v>
   <v type="int" >      164 </v>
   <v type="int" >      165 </v>
   <v type="int" >      166 </v>
   <v type="int" >      167 </v>
   <v type="int" >      168 </v>
   <v type="int" >      169 </v>
   <v type="int" >      170 </v>
   <v type="int" >      171 </v>
   <v type="int" >      172 </v>
   <v type="int" >      173 </v>
   <v type="int" >      174 </v>
   <v type="int" >      175 </v>
   <v type="int" >      176 </v>
   <v type="int" >      177 </v>
   <v type="int" >      178 </v>
   <v type="int" >      179 </v>
   <v type="int" >      180 </v>
   <v type="int" >      181 </v>
   <v type="int" >      182 </v>
   <v type="int" >      183 </v>
   <v type="int" >      184 </v>
   <v type="int" >      185 </v>
   <v type="int" >      186 </v>
   <v type="int" >      187 </v>
   <v type="int" >      188 </v>
   <v type="int" >      189 </v>
   <v type="int" >      190 </v>
   <v type="int" >      191 </v>
   <v type="int" >      192 </v>
   <v type="int" >      193 </v>
   <v type="int" >      194 </v>
   <v type="int" >      195 </v>
   <v type="int" >      196 </v>
   <v type="int" >      197 </v>
   <v type="int" >      198 </v>
   <v type="int" >      199 </v>
   <v type="int" >      200 </v>
   <v type="int" >      201 </v>
   <v type="int" >      202 </v>
   <v type="int" >      203 </v>
   <v type="int" >      204 </v>
   <v type="int" >      205 </v>
   <v type="int" >      206 </v>
   <v type="int" >      207 </v>
   <v type="int" >      208 </v>
   <v type="int" >      209 </v>
   <v type="int" >      210 </v>
   <v type="int" >      211 </v>
   <v type="int" >      212 </v>
   <v type="int" >      213 </v>
   <v type="int" >      214 </v>
   <v type="int" >      215 </v>
   <v type="int" >      216 </v>
   <v type="int" >      217 </v>
   <v type="int" >      218 </v>
   <v type="int" >      219 </v>
   <v type="int" >      220 </v>
   <v type="int" >      221 </v>
   <v type="int" >      222 </v>
   <v type="int" >      223 </v>
   <v type="int" >      224 </v>
   <v type="int" >      225 </v>
   <v type="int" >      226 </v>
   <v type="int" >      227 </v>
   <v type="int" >      228 </v>
   <v type="int" >      229 </v>
   <v type="int" >      230 </v>
   <v type="int" >      231 </v>
   <v type="int" >      232 </v>
   <v type="int" >      233 </v>
   <v type="int" >      234 </v>
   <v type="int" >      235 </v>
   <v type="int" >      236 </v>
   <v type="int" >      237 </v>
   <v type="int" >      238 </v>
   <v type="int" >      239 </v>
   <v type="int" >      240 </v>
   <v type="int" >      241 </v>
   <v type="int" >      242 </v>
   <v type="int" >      243 </v>
   <v type="int" >      244 </v>
   <v type="int" >      245 </v>
   <v type="int" >      246 </v>
  </varray>
 </primitive_cell>
 <kpoints>
  <generation param="Gamma">
   <v type="int" name="divisions">       3        3        1 </v>
   <v name="usershift">      0.00000000       0.00000000       0.00000000 </v>
   <v name="genvec1">      0.33333333       0.00000000       0.00000000 </v>
   <v name="genvec2">      0.00000000       0.33333333       0.00000000 </v>
   <v name="genvec3">      0.00000000       0.00000000       1.00000000 </v>
   <v name="shift">      0.00000000       0.00000000       0.00000000 </v>
  </generation>
  <varray name="kpointlist" >
   <v>       0.00000000       0.00000000       0.00000000 </v>
   <v>       0.33333333       0.00000000       0.00000000 </v>
   <v>       0.33333333       0.33333333       0.00000000 </v>
   <v>       0.00000000       0.33333333       0.00000000 </v>
   <v>      -0.33333333       0.33333333       0.00000000 </v>
  </varray>
  <varray name="weights" >
   <v>       0.11111111 </v>
   <v>       0.22222222 </v>
   <v>       0.22222222 </v>
   <v>       0.22222222 </v>
   <v>       0.22222222 </v>
  </varray>
 </kpoints>
 <parameters>
  <separator name="general" >
   <i type="string" name="SYSTEM">Si_surface_6layer</i>
   <i type="logical" name="LCOMPAT"> F  </i>
  </separator>
  <separator name="electronic" >
   <i type="string" name="PREC">accura</i>
   <i name="ENMAX">    540.00000000</i>
   <i name="ENAUG">    644.87300000</i>
   <i name="EDIFF">      0.00010000</i>
   <i type="int" name="IALGO">    38</i>
   <i type="int" name="IWAVPR">    12</i>
   <i type="int" name="NBANDS">   640</i>
   <i type="int" name="NBANDSLOW">    -1</i>
   <i type="int" name="NBANDSHIGH">    -1</i>
   <i name="NELECT">    864.00000000</i>
   <i type="int" name="TURBO">     0</i>
   <i type="int" name="IRESTART">     0</i>
   <i type="int" name="NREBOOT">     0</i>
   <i type="int" name="NMIN">     0</i>
   <i name="EREF">      0.00000000</i>
   <separator name="electronic smearing" >
    <i type="int" name="ISMEAR">     0</i>
    <i name="SIGMA">      0.01000000</i>
    <i name="KSPACING">      0.50000000</i>
    <i type="logical" name="KGAMMA"> T  </i>
    <i type="logical" name="KBLOWUP"> T  </i>
   </separator>
   <separator name="electronic projectors" >
    <i type="logical" name="LREAL"> F  </i>
    <v name="ROPT">      0.00000000      0.00000000      0.00000000      0.00000000</v>
    <i type="int" name="LMAXPAW">  -100</i>
    <i type="int" name="LMAXMIX">     2</i>
    <i type="logical" name="NLSPLINE"> F  </i>
   </separator>
   <separator name="electronic startup" >
    <i type="int" name="ISTART">     1</i>
    <i type="int" name="ICHARG">     0</i>
    <i type="int" name="INIWAV">     1</i>
   </separator>
   <separator name="electronic spin" >
    <i type="int" name="ISPIN">     1</i>
    <i type="logical" name="LNONCOLLINEAR"> F  </i>
    <v name="MAGMOM">      1.00000000      1.00000000      1.00000000      1.00000000      1.00000000      1.00000000      1.00000000      1.00000000      1.00000000      1.00000000      1.00000000      1.00000000      1.00000000      1.00000000      1.00000000      1.00000000      1.00000000      1.00000000      1.00000000      1.00000000
      1.00000000      1.00000000      1.00000000      1.00000000      1.00000000      1.00000000      1.00000000      1.00000000      1.00000000      1.00000000      1.00000000      1.00000000      1.00000000      1.00000000      1.00000000      1.00000000      1.00000000      1.00000000      1.00000000      1.00000000
      1.00000000      1.00000000      1.00000000      1.00000000      1.00000000      1.00000000      1.00000000      1.00000000      1.00000000      1.00000000      1.00000000      1.00000000      1.00000000      1.00000000      1.00000000      1.00000000      1.00000000      1.00000000      1.00000000      1.00000000
      1.00000000      1.00000000      1.00000000      1.00000000      1.00000000      1.00000000      1.00000000      1.00000000      1.00000000      1.00000000      1.00000000      1.00000000      1.00000000      1.00000000      1.00000000      1.00000000      1.00000000      1.00000000      1.00000000      1.00000000
      1.00000000      1.00000000      1.00000000      1.00000000      1.00000000      1.00000000      1.00000000      1.00000000      1.00000000      1.00000000      1.00000000      1.00000000      1.00000000      1.00000000      1.00000000      1.00000000      1.00000000      1.00000000      1.00000000      1.00000000
      1.00000000      1.00000000      1.00000000      1.00000000      1.00000000      1.00000000      1.00000000      1.00000000      1.00000000      1.00000000      1.00000000      1.00000000      1.00000000      1.00000000      1.00000000      1.00000000      1.00000000      1.00000000      1.00000000      1.00000000
      1.00000000      1.00000000      1.00000000      1.00000000      1.00000000      1.00000000      1.00000000      1.00000000      1.00000000      1.00000000      1.00000000      1.00000000      1.00000000      1.00000000      1.00000000      1.00000000      1.00000000      1.00000000      1.00000000      1.00000000
      1.00000000      1.00000000      1.00000000      1.00000000      1.00000000      1.00000000      1.00000000      1.00000000      1.00000000      1.00000000      1.00000000      1.00000000      1.00000000      1.00000000      1.00000000      1.00000000      1.00000000      1.00000000      1.00000000      1.00000000
      1.00000000      1.00000000      1.00000000      1.00000000      1.00000000      1.00000000      1.00000000      1.00000000      1.00000000      1.00000000      1.00000000      1.00000000      1.00000000      1.00000000      1.00000000      1.00000000      1.00000000      1.00000000      1.00000000      1.00000000
      1.00000000      1.00000000      1.00000000      1.00000000      1.00000000      1.00000000      1.00000000      1.00000000      1.00000000      1.00000000      1.00000000      1.00000000      1.00000000      1.00000000      1.00000000      1.00000000      1.00000000      1.00000000      1.00000000      1.00000000
      1.00000000      1.00000000      1.00000000      1.00000000      1.00000000      1.00000000      1.00000000      1.00000000      1.00000000      1.00000000      1.00000000      1.00000000      1.00000000      1.00000000      1.00000000      1.00000000      1.00000000      1.00000000      1.00000000      1.00000000
      1.00000000      1.00000000      1.00000000      1.00000000      1.00000000      1.00000000      1.00000000      1.00000000      1.00000000      1.00000000      1.00000000      1.00000000      1.00000000      1.00000000      1.00000000      1.00000000      1.00000000      1.00000000      1.00000000      1.00000000
      1.00000000      1.00000000      1.00000000      1.00000000      1.00000000      1.00000000</v>
    <i name="NUPDOWN">     -1.00000000</i>
    <i type="logical" name="LSORBIT"> F  </i>
    <v name="SAXIS">      0.00000000      0.00000000      1.00000000</v>
    <i type="logical" name="LSPIRAL"> F  </i>
    <v name="QSPIRAL">      0.00000000      0.00000000      0.00000000</v>
    <i type="logical" name="LZEROZ"> F  </i>
   </separator>
   <separator name="electronic exchange-correlation" >
    <i type="logical" name="LASPH"> F  </i>
    <i type="logical" name="LMETAGGA"> F  </i>
   </separator>
   <separator name="electronic convergence" >
    <i type="int" name="NELM">    60</i>
    <i type="int" name="NELMDL">     0</i>
    <i type="int" name="NELMIN">     5</i>
    <i name="ENINI">    540.00000000</i>
    <separator name="electronic convergence detail" >
     <i type="logical" name="LDIAG"> T  </i>
     <i type="logical" name="LSUBROT"> F  </i>
     <i name="WEIMIN">      0.00100000</i>
     <i name="EBREAK">      0.00000004</i>
     <i name="DEPER">      0.30000000</i>
     <i type="int" name="NRMM">     4</i>
     <i name="TIME">      0.40000000</i>
    </separator>
   </separator>
   <separator name="electronic mixer" >
    <i name="AMIX">      0.40000000</i>
    <i name="BMIX">      1.00000000</i>
    <i name="AMIN">      0.10000000</i>
    <i name="AMIX_MAG">      1.60000000</i>
    <i name="BMIX_MAG">      1.00000000</i>
    <separator name="electronic mixer details" >
     <i type="int" name="IMIX">     4</i>
     <i type="logical" name="MIXFIRST"> F  </i>
     <i type="int" name="MAXMIX">   -45</i>
     <i name="WC">    100.00000000</i>
     <i type="int" name="INIMIX">     1</i>
     <i type="int" name="MIXPRE">     1</i>
     <i type="int" name="MREMOVE">     5</i>
    </separator>
   </separator>
   <separator name="electronic dipolcorrection" >
    <i type="logical" name="LDIPOL"> F  </i>
    <i type="logical" name="LMONO"> F  </i>
    <i type="int" name="IDIPOL">     3</i>
    <i name="EPSILON">      1.00000000</i>
    <v name="DIPOL">   -100.00000000   -100.00000000   -100.00000000</v>
    <i name="EFIELD">      0.00000000</i>
   </separator>
  </separator>
  <separator name="grids" >
   <i type="int" name="NGX">   120</i>
   <i type="int" name="NGY">   120</i>
   <i type="int" name="NGZ">   320</i>
   <i type="int" name="NGXF">   240</i>
   <i type="int" name="NGYF">   240</i>
   <i type="int" name="NGZF">   640</i>
   <i type="logical" name="ADDGRID"> F  </i>
  </separator>
  <separator name="ionic" >
   <i type="int" name="NSW">   100</i>
   <i type="int" name="IBRION">     0</i>
   <i type="int" name="MDALGO">     2</i>
   <i type="int" name="ISIF">     2</i>
   <i name="PSTRESS">      0.00000000</i>
   <i name="EDIFFG">     -0.00950000</i>
   <i type="int" name="NFREE">     0</i>
   <i name="POTIM">      1.00000000</i>
   <i name="SMASS">     -1.00000000</i>
   <i name="SCALEE">      1.00000000</i>
  </separator>
  <separator name="ionic md" >
   <i name="TEBEG">    300.00000000</i>
   <i name="TEEND">    300.00000000</i>
   <i type="int" name="NBLOCK">     1</i>
   <i type="int" name="KBLOCK">   100</i>
   <i type="int" name="NPACO">   256</i>
   <i name="APACO">     10.00000000</i>
  </separator>
  <separator name="symmetry" >
   <i type="int" name="ISYM">     0</i>
   <i name="SYMPREC">      0.00001000</i>
  </separator>
  <separator name="dos" >
   <i type="int" name="LORBIT">     0</i>
   <v name="RWIGS">     -1.00000000     -1.00000000     -1.00000000     -1.00000000</v>
   <i type="int" name="NEDOS">   301</i>
   <i name="EMIN">     10.00000000</i>
   <i name="EMAX">    -10.00000000</i>
   <i name="EFERMI">      0.00000000</i>
  </separator>
  <separator name="writing" >
   <i type="int" name="NWRITE">     1</i>
   <i type="logical" name="LWAVE"> T  </i>
   <i type="logical" name="LDOWNSAMPLE"> F  </i>
   <i type="logical" name="LCHARG"> T  </i>
   <i type="logical" name="LPARD"> F  </i>
   <i type="logical" name="LVTOT"> F  </i>
   <i type="logical" name="LVHAR"> F  </i>
   <i type="logical" name="LELF"> F  </i>
   <i type="logical" name="LOPTICS"> F  </i>
   <v name="STM">      0.00000000      0.00000000      0.00000000      0.00000000      0.00000000      0.00000000      0.00000000</v>
  </separator>
  <separator name="performance" >
   <i type="int" name="NPAR">     8</i>
   <i type="int" name="NSIM">     4</i>
   <i type="int" name="NBLK">    -1</i>
   <i type="logical" name="LPLANE"> T  </i>
   <i type="logical" name="LSCALAPACK"> T  </i>
   <i type="logical" name="LSCAAWARE"> F  </i>
   <i type="logical" name="LSCALU"> F  </i>
   <i type="logical" name="LASYNC"> F  </i>
   <i type="logical" name="LORBITALREAL"> F  </i>
  </separator>
  <separator name="miscellaneous" >
   <i type="int" name="IDIOT">     3</i>
   <i type="int" name="PHON_NSTRUCT">    -1</i>
   <i type="logical" name="LMUSIC"> F  </i>
   <v name="POMASS">     12.01100000      1.00000000      1.00000000     28.08500000</v>
   <v name="DARWINR">      0.00000000      0.00000000      0.00000000      0.00000000</v>
   <v name="DARWINV">      1.00000000      1.00000000      1.00000000      1.00000000</v>
   <i type="logical" name="LCORR"> T  </i>
  </separator>
  <i type="logical" name="GGA_COMPAT"> T  </i>
  <i type="logical" name="LBERRY"> F  </i>
  <i type="int" name="ICORELEVEL">     0</i>
  <i type="logical" name="LDAU"> F  </i>
  <i type="int" name="I_CONSTRAINED_M">     0</i>
  <separator name="electronic exchange-correlation" >
   <i type="string" name="GGA">--</i>
   <i type="int" name="VOSKOWN">     0</i>
   <i type="logical" name="LHFCALC"> F  </i>
   <i type="string" name="PRECFOCK"></i>
   <i type="logical" name="LSYMGRAD"> F  </i>
   <i type="logical" name="LHFONE"> F  </i>
   <i type="logical" name="LRHFCALC"> F  </i>
   <i type="logical" name="LTHOMAS"> F  </i>
   <i type="logical" name="LMODELHF"> F  </i>
   <i type="logical" name="LFOCKACE"> F  </i>
   <i name="ENCUT4O">     -1.00000000</i>
   <i type="int" name="EXXOEP">     0</i>
   <i type="int" name="FOURORBIT">     0</i>
   <i name="AEXX">      0.00000000</i>
   <i name="HFALPHA">      0.00000000</i>
   <i name="MCALPHA">      0.00000000</i>
   <i name="ALDAX">      1.00000000</i>
   <i name="AGGAX">      1.00000000</i>
   <i name="ALDAC">      1.00000000</i>
   <i name="AGGAC">      1.00000000</i>
   <i type="int" name="NKREDX">     1</i>
   <i type="int" name="NKREDY">     1</i>
   <i type="int" name="NKREDZ">     1</i>
   <i type="logical" name="SHIFTRED"> F  </i>
   <i type="logical" name="ODDONLY"> F  </i>
   <i type="logical" name="EVENONLY"> F  </i>
   <i type="int" name="LMAXFOCK">     0</i>
   <i type="int" name="NMAXFOCKAE">     0</i>
   <i type="logical" name="LFOCKAEDFT"> F  </i>
   <i name="HFSCREEN">      0.00000000</i>
   <i name="HFSCREENC">      0.00000000</i>
   <i type="int" name="NBANDSGWLOW">     0</i>
  </separator>
  <separator name="vdW DFT" >
   <i type="logical" name="LUSE_VDW"> F  </i>
   <i name="Zab_VDW">     -0.84910000</i>
   <i name="PARAM1">      0.12340000</i>
   <i name="PARAM2">      1.00000000</i>
   <i name="PARAM3">      0.00000000</i>
  </separator>
  <separator name="model GW" >
   <i type="int" name="MODEL_GW">     0</i>
   <i name="MODEL_EPS0">     20.63739797</i>
   <i name="MODEL_ALPHA">      1.00000000</i>
  </separator>
  <separator name="linear response parameters" >
   <i type="logical" name="LEPSILON"> F  </i>
   <i type="logical" name="LRPA"> F  </i>
   <i type="logical" name="LNABLA"> F  </i>
   <i type="logical" name="LVEL"> F  </i>
   <i name="CSHIFT">      0.10000000</i>
   <i name="OMEGAMAX">     -1.00000000</i>
   <i name="DEG_THRESHOLD">      0.00200000</i>
   <i name="RTIME">     -0.10000000</i>
   <i name="WPLASMAI">      0.00000000</i>
   <v name="DFIELD">      0.00000000      0.00000000      0.00000000</v>
   <v name="WPLASMA">      0.00000000      0.00000000      0.00000000      0.00000000      0.00000000      0.00000000      0.00000000      0.00000000      0.00000000</v>
  </separator>
  <separator name="orbital magnetization" >
   <i type="logical" name="NUCIND"> F  </i>
   <v name="MAGPOS">      0.00000000      0.00000000      0.00000000</v>
   <i type="logical" name="LNICSALL"> T  </i>
   <i type="logical" name="ORBITALMAG"> F  </i>
   <i type="logical" name="LMAGBLOCH"> F  </i>
   <i type="logical" name="LCHIMAG"> F  </i>
   <i type="logical" name="LGAUGE"> T  </i>
   <i type="int" name="MAGATOM">     0</i>
   <v name="MAGDIPOL">      0.00000000      0.00000000      0.00000000</v>
   <v name="AVECCONST">      0.00000000      0.00000000      0.00000000</v>
  </separator>
  <separator name="response functions" >
   <i type="logical" name="LFINITE_TEMPERATURE"> F  </i>
   <i type="logical" name="LADDER"> F  </i>
   <i type="logical" name="LRPAFORCE"> F  </i>
   <i type="logical" name="LFXC"> F  </i>
   <i type="logical" name="LHARTREE"> T  </i>
   <i type="int" name="IBSE">     0</i>
   <v type="int" name="KPOINT">    -1     0     0     0</v>
   <i type="logical" name="LTCTC"> F  </i>
   <i type="logical" name="LTCTE"> F  </i>
   <i type="logical" name="LTETE"> F  </i>
   <i type="logical" name="LTRIPLET"> F  </i>
   <i type="logical" name="LFXCEPS"> F  </i>
   <i type="logical" name="LFXHEG"> F  </i>
   <i type="int" name="NATURALO">     2</i>
   <i type="logical" name="LHOLEGF"> F  </i>
   <i type="logical" name="L2ORDER"> F  </i>
   <i type="logical" name="LDMP1"> F  </i>
   <i type="logical" name="LMP2LT"> F  </i>
   <i type="logical" name="LSMP2LT"> F  </i>
   <i type="logical" name="LGWLF"> F  </i>
   <i name="ENCUTGW">     -2.00000000</i>
   <i name="ENCUTGWSOFT">     -2.00000000</i>
   <i name="ENCUTLF">     -1.00000000</i>
   <i type="logical" name="LESF_SPLINES"> F  </i>
   <i type="int" name="LMAXMP2">    -1</i>
   <i name="SCISSOR">      0.00000000</i>
   <i type="int" name="NOMEGA">     0</i>
   <i type="int" name="NOMEGAR">     0</i>
   <i type="int" name="NBANDSGW">    -1</i>
   <i type="int" name="NBANDSO">    -1</i>
   <i type="int" name="NBANDSV">    -1</i>
   <i type="int" name="NELMGW">     1</i>
   <i type="int" name="NELMHF">     1</i>
   <i type="int" name="DIM">     3</i>
   <i type="int" name="IESPILON">     4</i>
   <i type="int" name="ANTIRES">     0</i>
   <i name="OMEGAMAX">    -30.00000000</i>
   <i name="OMEGAMIN">    -30.00000000</i>
   <i name="OMEGATL">   -200.00000000</i>
   <i type="int" name="OMEGAGRID">     0</i>
   <i name="CSHIFT">     -0.10000000</i>
   <i type="logical" name="LSELFENERGY"> F  </i>
   <i type="logical" name="LSPECTRAL"> F  </i>
   <i type="logical" name="LSPECTRALGW"> F  </i>
   <i type="logical" name="LSINGLES"> F  </i>
   <i type="logical" name="LFERMIGW"> F  </i>
   <i type="logical" name="ODDONLYGW"> F  </i>
   <i type="logical" name="EVENONLYGW"> F  </i>
   <i type="int" name="NKREDLFX">     1</i>
   <i type="int" name="NKREDLFY">     1</i>
   <i type="int" name="NKREDLFZ">     1</i>
   <i type="int" name="MAXMEM">  2800</i>
   <i type="int" name="TELESCOPE">     0</i>
   <i type="int" name="NTAUPAR">    -1</i>
   <i type="int" name="NOMEGAPAR">    -1</i>
   <i name="DAMP_NEWTON">      0.80000001</i>
   <i name="LAMBDA">      1.00000000</i>
  </separator>
  <separator name="External order field" >
   <i name="OFIELD_KAPPA">      0.00000000</i>
   <v name="OFIELD_K">      0.00000000      0.00000000      0.00000000</v>
   <i name="OFIELD_Q6_NEAR">      0.00000000</i>
   <i name="OFIELD_Q6_FAR">      0.00000000</i>
   <i name="OFIELD_A">      0.00000000</i>
  </separator>
  <separator name="optional k-points parameters" >
   <i type="int" name="KPOINTS_OPT_MODE">     1</i>
   <i type="logical" name="LKPOINTS_OPT"> F  </i>
  </separator>
 </parameters>
 <atominfo>
  <atoms>     246 </atoms>
  <types>       4 </types>
  <array name="atoms" >
   <dimension dim="1">ion</dimension>
   <field type="string">element</field>
   <field type="int">atomtype</field>
   <set>
    <rc><c>C </c><c>   1</c></rc>
    <rc><c>C </c><c>   1</c></rc>
    <rc><c>C </c><c>   1</c></rc>
    <rc><c>C </c><c>   1</c></rc>
    <rc><c>C </c><c>   1</c></rc>
    <rc><c>C </c><c>   1</c></rc>
    <rc><c>C </c><c>   1</c></rc>
    <rc><c>C </c><c>   1</c></rc>
    <rc><c>C </c><c>   1</c></rc>
    <rc><c>C </c><c>   1</c></rc>
    <rc><c>C </c><c>   1</c></rc>
    <rc><c>C </c><c>   1</c></rc>
    <rc><c>C </c><c>   1</c></rc>
    <rc><c>C </c><c>   1</c></rc>
    <rc><c>H </c><c>   2</c></rc>
    <rc><c>H </c><c>   2</c></rc>
    <rc><c>H </c><c>   2</c></rc>
    <rc><c>H </c><c>   2</c></rc>
    <rc><c>H </c><c>   2</c></rc>
    <rc><c>H </c><c>   2</c></rc>
    <rc><c>H </c><c>   2</c></rc>
    <rc><c>H </c><c>   2</c></rc>
    <rc><c>H </c><c>   2</c></rc>
    <rc><c>H </c><c>   3</c></rc>
    <rc><c>H </c><c>   3</c></rc>
    <rc><c>H </c><c>   3</c></rc>
    <rc><c>H </c><c>   3</c></rc>
    <rc><c>H </c><c>   3</c></rc>
    <rc><c>H </c><c>   3</c></rc>
    <rc><c>H </c><c>   3</c></rc>
    <rc><c>H </c><c>   3</c></rc>
    <rc><c>H </c><c>   3</c></rc>
    <rc><c>H </c><c>   3</c></rc>
    <rc><c>H </c><c>   3</c></rc>
    <rc><c>H </c><c>   3</c></rc>
    <rc><c>H </c><c>   3</c></rc>
    <rc><c>H </c><c>   3</c></rc>
    <rc><c>H </c><c>   3</c></rc>
    <rc><c>H </c><c>   3</c></rc>
    <rc><c>H </c><c>   3</c></rc>
    <rc><c>H </c><c>   3</c></rc>
    <rc><c>H </c><c>   3</c></rc>
    <rc><c>H </c><c>   3</c></rc>
    <rc><c>H </c><c>   3</c></rc>
    <rc><c>H </c><c>   3</c></rc>
    <rc><c>H </c><c>   3</c></rc>
    <rc><c>H </c><c>   3</c></rc>
    <rc><c>H </c><c>   3</c></rc>
    <rc><c>H </c><c>   3</c></rc>
    <rc><c>H </c><c>   3</c></rc>
    <rc><c>H </c><c>   3</c></rc>
    <rc><c>H </c><c>   3</c></rc>
    <rc><c>H </c><c>   3</c></rc>
    <rc><c>H </c><c>   3</c></rc>
    <rc><c>Si</c><c>   4</c></rc>
    <rc><c>Si</c><c>   4</c></rc>
    <rc><c>Si</c><c>   4</c></rc>
    <rc><c>Si</c><c>   4</c></rc>
    <rc><c>Si</c><c>   4</c></rc>
    <rc><c>Si</c><c>   4</c></rc>
    <rc><c>Si</c><c>   4</c></rc>
    <rc><c>Si</c><c>   4</c></rc>
    <rc><c>Si</c><c>   4</c></rc>
    <rc><c>Si</c><c>   4</c></rc>
    <rc><c>Si</c><c>   4</c></rc>
    <rc><c>Si</c><c>   4</c></rc>
    <rc><c>Si</c><c>   4</c></rc>
    <rc><c>Si</c><c>   4</c></rc>
    <rc><c>Si</c><c>   4</c></rc>
    <rc><c>Si</c><c>   4</c></rc>
    <rc><c>Si</c><c>   4</c></rc>
    <rc><c>Si</c><c>   4</c></rc>
    <rc><c>Si</c><c>   4</c></rc>
    <rc><c>Si</c><c>   4</c></rc>
    <rc><c>Si</c><c>   4</c></rc>
    <rc><c>Si</c><c>   4</c></rc>
    <rc><c>Si</c><c>   4</c></rc>
    <rc><c>Si</c><c>   4</c></rc>
    <rc><c>Si</c><c>   4</c></rc>
    <rc><c>Si</c><c>   4</c></rc>
    <rc><c>Si</c><c>   4</c></rc>
    <rc><c>Si</c><c>   4</c></rc>
    <rc><c>Si</c><c>   4</c></rc>
    <rc><c>Si</c><c>   4</c></rc>
    <rc><c>Si</c><c>   4</c></rc>
    <rc><c>Si</c><c>   4</c></rc>
    <rc><c>Si</c><c>   4</c></rc>
    <rc><c>Si</c><c>   4</c></rc>
    <rc><c>Si</c><c>   4</c></rc>
    <rc><c>Si</c><c>   4</c></rc>
    <rc><c>Si</c><c>   4</c></rc>
    <rc><c>Si</c><c>   4</c></rc>
    <rc><c>Si</c><c>   4</c></rc>
    <rc><c>Si</c><c>   4</c></rc>
    <rc><c>Si</c><c>   4</c></rc>
    <rc><c>Si</c><c>   4</c></rc>
    <rc><c>Si</c><c>   4</c></rc>
    <rc><c>Si</c><c>   4</c></rc>
    <rc><c>Si</c><c>   4</c></rc>
    <rc><c>Si</c><c>   4</c></rc>
    <rc><c>Si</c><c>   4</c></rc>
    <rc><c>Si</c><c>   4</c></rc>
    <rc><c>Si</c><c>   4</c></rc>
    <rc><c>Si</c><c>   4</c></rc>
    <rc><c>Si</c><c>   4</c></rc>
    <rc><c>Si</c><c>   4</c></rc>
    <rc><c>Si</c><c>   4</c></rc>
    <rc><c>Si</c><c>   4</c></rc>
    <rc><c>Si</c><c>   4</c></rc>
    <rc><c>Si</c><c>   4</c></rc>
    <rc><c>Si</c><c>   4</c></rc>
    <rc><c>Si</c><c>   4</c></rc>
    <rc><c>Si</c><c>   4</c></rc>
    <rc><c>Si</c><c>   4</c></rc>
    <rc><c>Si</c><c>   4</c></rc>
    <rc><c>Si</c><c>   4</c></rc>
    <rc><c>Si</c><c>   4</c></rc>
    <rc><c>Si</c><c>   4</c></rc>
    <rc><c>Si</c><c>   4</c></rc>
    <rc><c>Si</c><c>   4</c></rc>
    <rc><c>Si</c><c>   4</c></rc>
    <rc><c>Si</c><c>   4</c></rc>
    <rc><c>Si</c><c>   4</c></rc>
    <rc><c>Si</c><c>   4</c></rc>
    <rc><c>Si</c><c>   4</c></rc>
    <rc><c>Si</c><c>   4</c></rc>
    <rc><c>Si</c><c>   4</c></rc>
    <rc><c>Si</c><c>   4</c></rc>
    <rc><c>Si</c><c>   4</c></rc>
    <rc><c>Si</c><c>   4</c></rc>
    <rc><c>Si</c><c>   4</c></rc>
    <rc><c>Si</c><c>   4</c></rc>
    <rc><c>Si</c><c>   4</c></rc>
    <rc><c>Si</c><c>   4</c></rc>
    <rc><c>Si</c><c>   4</c></rc>
    <rc><c>Si</c><c>   4</c></rc>
    <rc><c>Si</c><c>   4</c></rc>
    <rc><c>Si</c><c>   4</c></rc>
    <rc><c>Si</c><c>   4</c></rc>
    <rc><c>Si</c><c>   4</c></rc>
    <rc><c>Si</c><c>   4</c></rc>
    <rc><c>Si</c><c>   4</c></rc>
    <rc><c>Si</c><c>   4</c></rc>
    <rc><c>Si</c><c>   4</c></rc>
    <rc><c>Si</c><c>   4</c></rc>
    <rc><c>Si</c><c>   4</c></rc>
    <rc><c>Si</c><c>   4</c></rc>
    <rc><c>Si</c><c>   4</c></rc>
    <rc><c>Si</c><c>   4</c></rc>
    <rc><c>Si</c><c>   4</c></rc>
    <rc><c>Si</c><c>   4</c></rc>
    <rc><c>Si</c><c>   4</c></rc>
    <rc><c>Si</c><c>   4</c></rc>
    <rc><c>Si</c><c>   4</c></rc>
    <rc><c>Si</c><c>   4</c></rc>
    <rc><c>Si</c><c>   4</c></rc>
    <rc><c>Si</c><c>   4</c></rc>
    <rc><c>Si</c><c>   4</c></rc>
    <rc><c>Si</c><c>   4</c></rc>
    <rc><c>Si</c><c>   4</c></rc>
    <rc><c>Si</c><c>   4</c></rc>
    <rc><c>Si</c><c>   4</c></rc>
    <rc><c>Si</c><c>   4</c></rc>
    <rc><c>Si</c><c>   4</c></rc>
    <rc><c>Si</c><c>   4</c></rc>
    <rc><c>Si</c><c>   4</c></rc>
    <rc><c>Si</c><c>   4</c></rc>
    <rc><c>Si</c><c>   4</c></rc>
    <rc><c>Si</c><c>   4</c></rc>
    <rc><c>Si</c><c>   4</c></rc>
    <rc><c>Si</c><c>   4</c></rc>
    <rc><c>Si</c><c>   4</c></rc>
    <rc><c>Si</c><c>   4</c></rc>
    <rc><c>Si</c><c>   4</c></rc>
    <rc><c>Si</c><c>   4</c></rc>
    <rc><c>Si</c><c>   4</c></rc>
    <rc><c>Si</c><c>   4</c></rc>
    <rc><c>Si</c><c>   4</c></rc>
    <rc><c>Si</c><c>   4</c></rc>
    <rc><c>Si</c><c>   4</c></rc>
    <rc><c>Si</c><c>   4</c></rc>
    <rc><c>Si</c><c>   4</c></rc>
    <rc><c>Si</c><c>   4</c></rc>
    <rc><c>Si</c><c>   4</c></rc>
    <rc><c>Si</c><c>   4</c></rc>
    <rc><c>Si</c><c>   4</c></rc>
    <rc><c>Si</c><c>   4</c></rc>
    <rc><c>Si</c><c>   4</c></rc>
    <rc><c>Si</c><c>   4</c></rc>
    <rc><c>Si</c><c>   4</c></rc>
    <rc><c>Si</c><c>   4</c></rc>
    <rc><c>Si</c><c>   4</c></rc>
    <rc><c>Si</c><c>   4</c></rc>
    <rc><c>Si</c><c>   4</c></rc>
    <rc><c>Si</c><c>   4</c></rc>
    <rc><c>Si</c><c>   4</c></rc>
    <rc><c>Si</c><c>   4</c></rc>
    <rc><c>Si</c><c>   4</c></rc>
    <rc><c>Si</c><c>   4</c></rc>
    <rc><c>Si</c><c>   4</c></rc>
    <rc><c>Si</c><c>   4</c></rc>
    <rc><c>Si</c><c>   4</c></rc>
    <rc><c>Si</c><c>   4</c></rc>
    <rc><c>Si</c><c>   4</c></rc>
    <rc><c>Si</c><c>   4</c></rc>
    <rc><c>Si</c><c>   4</c></rc>
    <rc><c>Si</c><c>   4</c></rc>
    <rc><c>Si</c><c>   4</c></rc>
    <rc><c>Si</c><c>   4</c></rc>
    <rc><c>Si</c><c>   4</c></rc>
    <rc><c>Si</c><c>   4</c></rc>
    <rc><c>Si</c><c>   4</c></rc>
    <rc><c>Si</c><c>   4</c></rc>
    <rc><c>Si</c><c>   4</c></rc>
    <rc><c>Si</c><c>   4</c></rc>
    <rc><c>Si</c><c>   4</c></rc>
    <rc><c>Si</c><c>   4</c></rc>
    <rc><c>Si</c><c>   4</c></rc>
    <rc><c>Si</c><c>   4</c></rc>
    <rc><c>Si</c><c>   4</c></rc>
    <rc><c>Si</c><c>   4</c></rc>
    <rc><c>Si</c><c>   4</c></rc>
    <rc><c>Si</c><c>   4</c></rc>
    <rc><c>Si</c><c>   4</c></rc>
    <rc><c>Si</c><c>   4</c></rc>
    <rc><c>Si</c><c>   4</c></rc>
    <rc><c>Si</c><c>   4</c></rc>
    <rc><c>Si</c><c>   4</c></rc>
    <rc><c>Si</c><c>   4</c></rc>
    <rc><c>Si</c><c>   4</c></rc>
    <rc><c>Si</c><c>   4</c></rc>
    <rc><c>Si</c><c>   4</c></rc>
    <rc><c>Si</c><c>   4</c></rc>
    <rc><c>Si</c><c>   4</c></rc>
    <rc><c>Si</c><c>   4</c></rc>
    <rc><c>Si</c><c>   4</c></rc>
    <rc><c>Si</c><c>   4</c></rc>
    <rc><c>Si</c><c>   4</c></rc>
    <rc><c>Si</c><c>   4</c></rc>
    <rc><c>Si</c><c>   4</c></rc>
    <rc><c>Si</c><c>   4</c></rc>
    <rc><c>Si</c><c>   4</c></rc>
    <rc><c>Si</c><c>   4</c></rc>
    <rc><c>Si</c><c>   4</c></rc>
    <rc><c>Si</c><c>   4</c></rc>
    <rc><c>Si</c><c>   4</c></rc>
   </set>
  </array>
  <array name="atomtypes" >
   <dimension dim="1">type</dimension>
   <field type="int">atomspertype</field>
   <field type="string">element</field>
   <field>mass</field>
   <field>valence</field>
   <field type="string">pseudopotential</field>
   <set>
    <rc><c>  14</c><c>C </c><c>     12.01100000</c><c>      4.00000000</c><c>  PAW_PBE C_GW 28Sep2005                </c></rc>
    <rc><c>   9</c><c>H </c><c>      1.00000000</c><c>      1.00000000</c><c>  PAW_PBE H_GW 21Apr2008                </c></rc>
    <rc><c>  31</c><c>H </c><c>      1.00000000</c><c>      1.00000000</c><c>  PAW_PBE H_GW 21Apr2008                </c></rc>
    <rc><c> 192</c><c>Si</c><c>     28.08500000</c><c>      4.00000000</c><c>  PAW_PBE Si_GW 04May2012               </c></rc>
   </set>
  </array>
 </atominfo>
 <structure name="initialpos" >
  <crystal>
   <varray name="basis" >
    <v>      15.33298779       0.00000000       0.00000000 </v>
    <v>       7.66649389      13.27875694       0.00000000 </v>
    <v>       0.00000000       0.00000000      41.55799484 </v>
   </varray>
   <i name="volume">   8461.33316923 </i>
   <varray name="rec_basis" >
    <v>       0.06521886      -0.03765413       0.00000000 </v>
    <v>       0.00000000       0.07530825       0.00000000 </v>
    <v>       0.00000000       0.00000000       0.02406276 </v>
   </varray>
  </crystal>
  <varray name="positions" >
   <v>       0.63461371       0.40884329       0.57599703 </v>
   <v>       0.57181674       0.37367582       0.56492148 </v>
   <v>       0.63480076       0.49032221       0.55985496 </v>
   <v>       0.51270621       0.41831694       0.53592782 </v>
   <v>       0.54680742       0.46907869       0.51518699 </v>
   <v>       0.59524085       0.51794440       0.52863164 </v>
   <v>       0.66454646       0.55196392       0.57691189 </v>
   <v>       0.64572348       0.64218742       0.56467078 </v>
   <v>       0.60821881       0.66859956       0.53299433 </v>
   <v>       0.59020412       0.60407400       0.51497671 </v>
   <v>       0.53179179       0.32576136       0.58583385 </v>
   <v>       0.43287804       0.34298832       0.58236569 </v>
   <v>       0.36929672       0.40732084       0.55777725 </v>
   <v>       0.41519428       0.43103845       0.53355500 </v>
   <v>       0.56912758       0.27873526       0.60663603 </v>
   <v>       0.40232765       0.30702867       0.59720605 </v>
   <v>       0.28967105       0.43478415       0.55698889 </v>
   <v>       0.36927648       0.48127067       0.51363492 </v>
   <v>       0.66282400       0.39981620       0.60047597 </v>
   <v>       0.55270200       0.63402848       0.49283289 </v>
   <v>       0.59689882       0.73626945       0.52113958 </v>
   <v>       0.68781406       0.53609618       0.60239208 </v>
   <v>       0.64805376       0.70060427       0.57796875 </v>
   <v>       0.00098383       0.00444128       0.02363567 </v>
   <v>       0.47955215       0.00320854       0.01590283 </v>
   <v>       0.98247818       0.52050444       0.01891430 </v>
   <v>       0.49084019       0.48669914       0.02089696 </v>
   <v>       0.25182558       0.99598374       0.02219201 </v>
   <v>       0.75783645       0.98266357       0.01890014 </v>
   <v>       0.24729893       0.51246520       0.01806240 </v>
   <v>       0.76217869       0.48584598       0.02424191 </v>
   <v>       0.99871010       0.24218073       0.02130506 </v>
   <v>       0.47588455       0.27637575       0.02308682 </v>
   <v>       0.99163150       0.76055149       0.02021573 </v>
   <v>       0.47445424       0.76361944       0.02078385 </v>
   <v>       0.25463679       0.25524045       0.01984875 </v>
   <v>       0.73916783       0.23912758       0.02285627 </v>
   <v>       0.26539101       0.74088069       0.01702728 </v>
   <v>       0.75978874       0.74870153       0.02159714 </v>
   <v>       0.00307723       0.00889917       0.48645798 </v>
   <v>       0.48934528       0.02245938       0.48846320 </v>
   <v>       0.99932761       0.51612488       0.48752636 </v>
   <v>       0.24740734       0.99635254       0.48918428 </v>
   <v>       0.75709468       0.98988490       0.48802841 </v>
   <v>       0.24675487       0.48237436       0.49199860 </v>
   <v>       0.72018432       0.52005146       0.49374157 </v>
   <v>       0.01623029       0.24996420       0.49082120 </v>
   <v>       0.48809524       0.23154543       0.49195868 </v>
   <v>       0.99886650       0.75464448       0.48604194 </v>
   <v>       0.49095667       0.77977553       0.48914999 </v>
   <v>       0.26611076       0.24661882       0.48658461 </v>
   <v>       0.75011599       0.24464717       0.49108379 </v>
   <v>       0.23621779       0.75898628       0.49306761 </v>
   <v>       0.75702775       0.75874433       0.48617099 </v>
   <v>       0.99624627       0.00761814       0.06001262 </v>
   <v>       0.49185248       0.00010261       0.05241814 </v>
   <v>       0.99117765       0.50718942       0.05482802 </v>
   <v>       0.50251656       0.49438106       0.05660372 </v>
   <v>       0.24552573       0.00549386       0.05897718 </v>
   <v>       0.74275312       0.99977489       0.05510554 </v>
   <v>       0.25208678       0.50685101       0.05466082 </v>
   <v>       0.74750696       0.50055392       0.06023194 </v>
   <v>       0.99394678       0.25621073       0.05719312 </v>
   <v>       0.49725269       0.24912452       0.05837385 </v>
   <v>       0.99005944       0.75891577       0.05704975 </v>
   <v>       0.49718173       0.74760802       0.05670702 </v>
   <v>       0.24195794       0.25839017       0.05560896 </v>
   <v>       0.74829470       0.24391508       0.05858533 </v>
   <v>       0.25630237       0.74850843       0.05413664 </v>
   <v>       0.74710974       0.75022657       0.05769579 </v>
   <v>       0.82730534       0.83478355       0.07669365 </v>
   <v>       0.32340269       0.84452189       0.07603671 </v>
   <v>       0.83060738       0.33252229       0.07684694 </v>
   <v>       0.33072929       0.33582617       0.07454952 </v>
   <v>       0.08599364       0.83311599       0.07129613 </v>
   <v>       0.57816366       0.83368225       0.07224667 </v>
   <v>       0.07044911       0.34627715       0.07574165 </v>
   <v>       0.58311624       0.33184918       0.07631676 </v>
   <v>       0.82961496       0.07958260       0.07674248 </v>
   <v>       0.32980764       0.09109562       0.07576669 </v>
   <v>       0.82979772       0.58840280       0.07574349 </v>
   <v>       0.32743392       0.58684035       0.07677991 </v>
   <v>       0.07588047       0.09381322       0.07585332 </v>
   <v>       0.58181555       0.07863373       0.07332262 </v>
   <v>       0.08081426       0.58694321       0.07213657 </v>
   <v>       0.57893905       0.58075980       0.07655990 </v>
   <v>       0.83621985       0.82830904       0.13210217 </v>
   <v>       0.33313393       0.83464340       0.13230381 </v>
   <v>       0.82315029       0.34119750       0.13243582 </v>
   <v>       0.33209927       0.32621739       0.13202495 </v>
   <v>       0.08028164       0.83512985       0.12944262 </v>
   <v>       0.58616667       0.83873231       0.12854316 </v>
   <v>       0.08647541       0.33474982       0.13273204 </v>
   <v>       0.58253402       0.33033715       0.13100824 </v>
   <v>       0.83468520       0.08786397       0.13330137 </v>
   <v>       0.33466800       0.07520092       0.13229155 </v>
   <v>       0.82276351       0.58660224       0.13242898 </v>
   <v>       0.32754467       0.58270043       0.13237116 </v>
   <v>       0.08238481       0.08871599       0.13259225 </v>
   <v>       0.59183282       0.07905351       0.12953718 </v>
   <v>       0.07886537       0.58843828       0.13001926 </v>
   <v>       0.57722595       0.58996655       0.13076251 </v>
   <v>       0.65689890       0.67742957       0.15021016 </v>
   <v>       0.15763269       0.67449793       0.14992077 </v>
   <v>       0.67175256       0.16545212       0.14997151 </v>
   <v>       0.16521590       0.17104023       0.15174932 </v>
   <v>       0.91985993       0.65589689       0.15019870 </v>
   <v>       0.41540521       0.66423406       0.15097346 </v>
   <v>       0.91241846       0.17683132       0.15191161 </v>
   <v>       0.42125190       0.15876347       0.14947414 </v>
   <v>       0.67030621       0.91650626       0.15078697 </v>
   <v>       0.16591369       0.91950871       0.15074117 </v>
   <v>       0.65270495       0.42490373       0.15085681 </v>
   <v>       0.17065834       0.41778408       0.15007389 </v>
   <v>       0.91311090       0.91736125       0.15011744 </v>
   <v>       0.42397198       0.91076200       0.15090352 </v>
   <v>       0.91402389       0.41967273       0.15091471 </v>
   <v>       0.41358952       0.41392168       0.14961791 </v>
   <v>       0.66691256       0.66650248       0.20705400 </v>
   <v>       0.16691388       0.66649014       0.20705898 </v>
   <v>       0.66690344       0.16650572       0.20706598 </v>
   <v>       0.16684061       0.16660814       0.20708179 </v>
   <v>       0.91692531       0.66649854       0.20705917 </v>
   <v>       0.41692519       0.66647869       0.20706536 </v>
   <v>       0.91692513       0.16650243       0.20707472 </v>
   <v>       0.41696414       0.16651435       0.20706744 </v>
   <v>       0.66691798       0.91648233       0.20704252 </v>
   <v>       0.16694951       0.91644073       0.20704633 </v>
   <v>       0.66691595       0.41648963       0.20705459 </v>
   <v>       0.16692059       0.41647589       0.20705572 </v>
   <v>       0.91694874       0.91646326       0.20705239 </v>
   <v>       0.41701031       0.91640425       0.20704821 </v>
   <v>       0.91693836       0.41649175       0.20706075 </v>
   <v>       0.41692036       0.41647944       0.20706344 </v>
   <v>       0.50027961       0.49979386       0.22588077 </v>
   <v>       0.00028667       0.49982324       0.22588116 </v>
   <v>       0.50028664       0.99980050       0.22585523 </v>
   <v>       0.00032078       0.99976605       0.22586109 </v>
   <v>       0.75028151       0.49981755       0.22585414 </v>
   <v>       0.25025454       0.49979892       0.22586794 </v>
   <v>       0.75028825       0.99977207       0.22584361 </v>
   <v>       0.25032210       0.99981099       0.22577891 </v>
   <v>       0.50031888       0.74973106       0.22591361 </v>
   <v>       0.00028389       0.74979836       0.22589213 </v>
   <v>       0.50029421       0.24984773       0.22593303 </v>
   <v>       0.00016690       0.24989246       0.22594903 </v>
   <v>       0.75026935       0.74982309       0.22586657 </v>
   <v>       0.25028658       0.74977243       0.22589330 </v>
   <v>       0.75025457       0.24982803       0.22588788 </v>
   <v>       0.25034884       0.24982284       0.22589789 </v>
   <v>       0.50049311       0.49963021       0.28230625 </v>
   <v>       0.00050731       0.49968964       0.28230852 </v>
   <v>       0.50051337       0.99962586       0.28226966 </v>
   <v>       0.00059072       0.99956340       0.28227770 </v>
   <v>       0.75046229       0.49970725       0.28226706 </v>
   <v>       0.25044429       0.49965557       0.28228563 </v>
   <v>       0.75051129       0.99957675       0.28225109 </v>
   <v>       0.25060219       0.99960679       0.28215271 </v>
   <v>       0.50056702       0.74950278       0.28235546 </v>
   <v>       0.00050130       0.74963838       0.28232342 </v>
   <v>       0.50053847       0.24974354       0.28238246 </v>
   <v>       0.00022542       0.24985044       0.28240287 </v>
   <v>       0.75046211       0.74969256       0.28228703 </v>
   <v>       0.25051790       0.74957991       0.28232458 </v>
   <v>       0.75041085       0.24970731       0.28231668 </v>
   <v>       0.25066370       0.24970363       0.28232852 </v>
   <v>       0.33391163       0.33313787       0.30122888 </v>
   <v>       0.83340478       0.33325410       0.30123815 </v>
   <v>       0.33380580       0.83306384       0.30105916 </v>
   <v>       0.83384037       0.83295310       0.30113372 </v>
   <v>       0.58387220       0.33310598       0.30124068 </v>
   <v>       0.08398665       0.33295631       0.30108732 </v>
   <v>       0.58382905       0.83298177       0.30112001 </v>
   <v>       0.08388577       0.83291119       0.30115694 </v>
   <v>       0.33384538       0.58284026       0.30112976 </v>
   <v>       0.83381855       0.58302647       0.30109686 </v>
   <v>       0.33384517       0.08289958       0.30104592 </v>
   <v>       0.83388197       0.08288339       0.30102268 </v>
   <v>       0.58398402       0.58273447       0.30118588 </v>
   <v>       0.08386202       0.58297580       0.30116987 </v>
   <v>       0.58390039       0.08290785       0.30108312 </v>
   <v>       0.08406826       0.08289581       0.30098030 </v>
   <v>       0.33210385       0.33726808       0.35757413 </v>
   <v>       0.82909044       0.33238276       0.35800594 </v>
   <v>       0.32589314       0.83909339       0.35956629 </v>
   <v>       0.83127237       0.83805215       0.35881369 </v>
   <v>       0.57499887       0.34026397       0.35824375 </v>
   <v>       0.07436160       0.33683703       0.35819948 </v>
   <v>       0.58033150       0.83371375       0.35772280 </v>
   <v>       0.08403039       0.83544282       0.35805521 </v>
   <v>       0.33632820       0.58305369       0.35807218 </v>
   <v>       0.83275840       0.58129211       0.35821144 </v>
   <v>       0.33356114       0.08288670       0.35671526 </v>
   <v>       0.83267089       0.08948993       0.35905099 </v>
   <v>       0.58746603       0.58259324       0.36076302 </v>
   <v>       0.08562254       0.58803183       0.35678960 </v>
   <v>       0.58688910       0.08662491       0.35777500 </v>
   <v>       0.08033082       0.09199241       0.35800638 </v>
   <v>       0.17079318       0.16942984       0.37503755 </v>
   <v>       0.66284755       0.17441191       0.37880012 </v>
   <v>       0.17129002       0.66691870       0.37842240 </v>
   <v>       0.66900419       0.67106718       0.37806978 </v>
   <v>       0.41981406       0.16837640       0.37430952 </v>
   <v>       0.91486272       0.17223679       0.37970320 </v>
   <v>       0.42054686       0.66706779       0.38074428 </v>
   <v>       0.91640285       0.66989439       0.37437013 </v>
   <v>       0.16678630       0.41716338       0.37738999 </v>
   <v>       0.66335192       0.41697066       0.38171154 </v>
   <v>       0.15264597       0.92905987       0.37623277 </v>
   <v>       0.66285852       0.91829666       0.37489656 </v>
   <v>       0.41476572       0.42141068       0.37948566 </v>
   <v>       0.90667918       0.41896731       0.37749337 </v>
   <v>       0.41448087       0.91719994       0.37824492 </v>
   <v>       0.91825828       0.92065855       0.37637244 </v>
   <v>       0.16315704       0.17420416       0.43342787 </v>
   <v>       0.66419315       0.16942756       0.43553718 </v>
   <v>       0.17188067       0.66168740       0.43617250 </v>
   <v>       0.66742472       0.67051504       0.43680296 </v>
   <v>       0.40676635       0.16973378       0.43021932 </v>
   <v>       0.91369671       0.17287629       0.43488956 </v>
   <v>       0.41402785       0.67132594       0.44212973 </v>
   <v>       0.91887470       0.66900645       0.43106629 </v>
   <v>       0.16284129       0.42424701       0.43290359 </v>
   <v>       0.65548267       0.42683652       0.44040100 </v>
   <v>       0.16659008       0.92438849       0.43320865 </v>
   <v>       0.66763509       0.91776368       0.43292191 </v>
   <v>       0.41441827       0.41918438       0.44126026 </v>
   <v>       0.91192988       0.42209936       0.43422575 </v>
   <v>       0.42100246       0.91951670       0.43500013 </v>
   <v>       0.91780636       0.91466902       0.43209028 </v>
   <v>       0.99849104       0.00342646       0.45038102 </v>
   <v>       0.49758573       0.01075706       0.45191652 </v>
   <v>       0.99757058       0.50351287       0.45171033 </v>
   <v>       0.49888309       0.50135377       0.46731548 </v>
   <v>       0.24860505       0.00913791       0.45345362 </v>
   <v>       0.75495460       0.99776159       0.45176270 </v>
   <v>       0.24109449       0.49892193       0.45824903 </v>
   <v>       0.74423445       0.50442927       0.45570388 </v>
   <v>       0.00047061       0.25963648       0.45526260 </v>
   <v>       0.49442694       0.24669715       0.45546372 </v>
   <v>       0.00267416       0.75229770       0.44976263 </v>
   <v>       0.50258912       0.75550227       0.45489975 </v>
   <v>       0.24739015       0.25552332       0.45093815 </v>
   <v>       0.74800346       0.24971211       0.45521530 </v>
   <v>       0.24441858       0.75551130       0.45681119 </v>
   <v>       0.75457001       0.75759344       0.45019443 </v>
  </varray>
  <varray name="selective"  type="logical" >
   <v type="logical" >  T  T  T </v>
   <v type="logical" >  T  T  T </v>
   <v type="logical" >  T  T  T </v>
   <v type="logical" >  T  T  T </v>
   <v type="logical" >  T  T  T </v>
   <v type="logical" >  T  T  T </v>
   <v type="logical" >  T  T  T </v>
   <v type="logical" >  T  T  T </v>
   <v type="logical" >  T  T  T </v>
   <v type="logical" >  T  T  T </v>
   <v type="logical" >  T  T  T </v>
   <v type="logical" >  T  T  T </v>
   <v type="logical" >  T  T  T </v>
   <v type="logical" >  T  T  T </v>
   <v type="logical" >  T  T  T </v>
   <v type="logical" >  T  T  T </v>
   <v type="logical" >  T  T  T </v>
   <v type="logical" >  T  T  T </v>
   <v type="logical" >  T  T  T </v>
   <v type="logical" >  T  T  T </v>
   <v type="logical" >  T  T  T </v>
   <v type="logical" >  T  T  T </v>
   <v type="logical" >  T  T  T </v>
   <v type="logical" >  T  T  T </v>
   <v type="logical" >  T  T  T </v>
   <v type="logical" >  T  T  T </v>
   <v type="logical" >  T  T  T </v>
   <v type="logical" >  T  T  T </v>
   <v type="logical" >  T  T  T </v>
   <v type="logical" >  T  T  T </v>
   <v type="logical" >  T  T  T </v>
   <v type="logical" >  T  T  T </v>
   <v type="logical" >  T  T  T </v>
   <v type="logical" >  T  T  T </v>
   <v type="logical" >  T  T  T </v>
   <v type="logical" >  T  T  T </v>
   <v type="logical" >  T  T  T </v>
   <v type="logical" >  T  T  T </v>
   <v type="logical" >  T  T  T </v>
   <v type="logical" >  T  T  T </v>
   <v type="logical" >  T  T  T </v>
   <v type="logical" >  T  T  T </v>
   <v type="logical" >  T  T  T </v>
   <v type="logical" >  T  T  T </v>
   <v type="logical" >  T  T  T </v>
   <v type="logical" >  T  T  T </v>
   <v type="logical" >  T  T  T </v>
   <v type="logical" >  T  T  T </v>
   <v type="logical" >  T  T  T </v>
   <v type="logical" >  T  T  T </v>
   <v type="logical" >  T  T  T </v>
   <v type="logical" >  T  T  T </v>
   <v type="logical" >  T  T  T </v>
   <v type="logical" >  T  T  T </v>
   <v type="logical" >  T  T  T </v>
   <v type="logical" >  T  T  T </v>
   <v type="logical" >  T  T  T </v>
   <v type="logical" >  T  T  T </v>
   <v type="logical" >  T  T  T </v>
   <v type="logical" >  T  T  T </v>
   <v type="logical" >  T  T  T </v>
   <v type="logical" >  T  T  T </v>
   <v type="logical" >  T  T  T </v>
   <v type="logical" >  T  T  T </v>
   <v type="logical" >  T  T  T </v>
   <v type="logical" >  T  T  T </v>
   <v type="logical" >  T  T  T </v>
   <v type="logical" >  T  T  T </v>
   <v type="logical" >  T  T  T </v>
   <v type="logical" >  T  T  T </v>
   <v type="logical" >  T  T  T </v>
   <v type="logical" >  T  T  T </v>
   <v type="logical" >  T  T  T </v>
   <v type="logical" >  T  T  T </v>
   <v type="logical" >  T  T  T </v>
   <v type="logical" >  T  T  T </v>
   <v type="logical" >  T  T  T </v>
   <v type="logical" >  T  T  T </v>
   <v type="logical" >  T  T  T </v>
   <v type="logical" >  T  T  T </v>
   <v type="logical" >  T  T  T </v>
   <v type="logical" >  T  T  T </v>
   <v type="logical" >  T  T  T </v>
   <v type="logical" >  T  T  T </v>
   <v type="logical" >  T  T  T </v>
   <v type="logical" >  T  T  T </v>
   <v type="logical" >  T  T  T </v>
   <v type="logical" >  T  T  T </v>
   <v type="logical" >  T  T  T </v>
   <v type="logical" >  T  T  T </v>
   <v type="logical" >  T  T  T </v>
   <v type="logical" >  T  T  T </v>
   <v type="logical" >  T  T  T </v>
   <v type="logical" >  T  T  T </v>
   <v type="logical" >  T  T  T </v>
   <v type="logical" >  T  T  T </v>
   <v type="logical" >  T  T  T </v>
   <v type="logical" >  T  T  T </v>
   <v type="logical" >  T  T  T </v>
   <v type="logical" >  T  T  T </v>
   <v type="logical" >  T  T  T </v>
   <v type="logical" >  T  T  T </v>
   <v type="logical" >  T  T  T </v>
   <v type="logical" >  T  T  T </v>
   <v type="logical" >  T  T  T </v>
   <v type="logical" >  T  T  T </v>
   <v type="logical" >  T  T  T </v>
   <v type="logical" >  T  T  T </v>
   <v type="logical" >  T  T  T </v>
   <v type="logical" >  T  T  T </v>
   <v type="logical" >  T  T  T </v>
   <v type="logical" >  T  T  T </v>
   <v type="logical" >  T  T  T </v>
   <v type="logical" >  T  T  T </v>
   <v type="logical" >  T  T  T </v>
   <v type="logical" >  T  T  T </v>
   <v type="logical" >  T  T  T </v>
   <v type="logical" >  T  T  T </v>
   <v type="logical" >  F  F  F </v>
   <v type="logical" >  F  F  F </v>
   <v type="logical" >  F  F  F </v>
   <v type="logical" >  F  F  F </v>
   <v type="logical" >  F  F  F </v>
   <v type="logical" >  F  F  F </v>
   <v type="logical" >  F  F  F </v>
   <v type="logical" >  F  F  F </v>
   <v type="logical" >  F  F  F </v>
   <v type="logical" >  F  F  F </v>
   <v type="logical" >  F  F  F </v>
   <v type="logical" >  F  F  F </v>
   <v type="logical" >  F  F  F </v>
   <v type="logical" >  F  F  F </v>
   <v type="logical" >  F  F  F </v>
   <v type="logical" >  F  F  F </v>
   <v type="logical" >  F  F  F </v>
   <v type="logical" >  F  F  F </v>
   <v type="logical" >  F  F  F </v>
   <v type="logical" >  F  F  F </v>
   <v type="logical" >  F  F  F </v>
   <v type="logical" >  F  F  F </v>
   <v type="logical" >  F  F  F </v>
   <v type="logical" >  F  F  F </v>
   <v type="logical" >  F  F  F </v>
   <v type="logical" >  F  F  F </v>
   <v type="logical" >  F  F  F </v>
   <v type="logical" >  F  F  F </v>
   <v type="logical" >  F  F  F </v>
   <v type="logical" >  F  F  F </v>
   <v type="logical" >  F  F  F </v>
   <v type="logical" >  F  F  F </v>
   <v type="logical" >  F  F  F </v>
   <v type="logical" >  F  F  F </v>
   <v type="logical" >  F  F  F </v>
   <v type="logical" >  F  F  F </v>
   <v type="logical" >  F  F  F </v>
   <v type="logical" >  F  F  F </v>
   <v type="logical" >  F  F  F </v>
   <v type="logical" >  F  F  F </v>
   <v type="logical" >  F  F  F </v>
   <v type="logical" >  F  F  F </v>
   <v type="logical" >  F  F  F </v>
   <v type="logical" >  F  F  F </v>
   <v type="logical" >  F  F  F </v>
   <v type="logical" >  F  F  F </v>
   <v type="logical" >  F  F  F </v>
   <v type="logical" >  F  F  F </v>
   <v type="logical" >  F  F  F </v>
   <v type="logical" >  F  F  F </v>
   <v type="logical" >  F  F  F </v>
   <v type="logical" >  F  F  F </v>
   <v type="logical" >  F  F  F </v>
   <v type="logical" >  F  F  F </v>
   <v type="logical" >  F  F  F </v>
   <v type="logical" >  F  F  F </v>
   <v type="logical" >  F  F  F </v>
   <v type="logical" >  F  F  F </v>
   <v type="logical" >  F  F  F </v>
   <v type="logical" >  F  F  F </v>
   <v type="logical" >  F  F  F </v>
   <v type="logical" >  F  F  F </v>
   <v type="logical" >  F  F  F </v>
   <v type="logical" >  F  F  F </v>
   <v type="logical" >  T  T  T </v>
   <v type="logical" >  T  T  T </v>
   <v type="logical" >  T  T  T </v>
   <v type="logical" >  T  T  T </v>
   <v type="logical" >  T  T  T </v>
   <v type="logical" >  T  T  T </v>
   <v type="logical" >  T  T  T </v>
   <v type="logical" >  T  T  T </v>
   <v type="logical" >  T  T  T </v>
   <v type="logical" >  T  T  T </v>
   <v type="logical" >  T  T  T </v>
   <v type="logical" >  T  T  T </v>
   <v type="logical" >  T  T  T </v>
   <v type="logical" >  T  T  T </v>
   <v type="logical" >  T  T  T </v>
   <v type="logical" >  T  T  T </v>
   <v type="logical" >  T  T  T </v>
   <v type="logical" >  T  T  T </v>
   <v type="logical" >  T  T  T </v>
   <v type="logical" >  T  T  T </v>
   <v type="logical" >  T  T  T </v>
   <v type="logical" >  T  T  T </v>
   <v type="logical" >  T  T  T </v>
   <v type="logical" >  T  T  T </v>
   <v type="logical" >  T  T  T </v>
   <v type="logical" >  T  T  T </v>
   <v type="logical" >  T  T  T </v>
   <v type="logical" >  T  T  T </v>
   <v type="logical" >  T  T  T </v>
   <v type="logical" >  T  T  T </v>
   <v type="logical" >  T  T  T </v>
   <v type="logical" >  T  T  T </v>
   <v type="logical" >  T  T  T </v>
   <v type="logical" >  T  T  T </v>
   <v type="logical" >  T  T  T </v>
   <v type="logical" >  T  T  T </v>
   <v type="logical" >  T  T  T </v>
   <v type="logical" >  T  T  T </v>
   <v type="logical" >  T  T  T </v>
   <v type="logical" >  T  T  T </v>
   <v type="logical" >  T  T  T </v>
   <v type="logical" >  T  T  T </v>
   <v type="logical" >  T  T  T </v>
   <v type="logical" >  T  T  T </v>
   <v type="logical" >  T  T  T </v>
   <v type="logical" >  T  T  T </v>
   <v type="logical" >  T  T  T </v>
   <v type="logical" >  T  T  T </v>
   <v type="logical" >  T  T  T </v>
   <v type="logical" >  T  T  T </v>
   <v type="logical" >  T  T  T </v>
   <v type="logical" >  T  T  T </v>
   <v type="logical" >  T  T  T </v>
   <v type="logical" >  T  T  T </v>
   <v type="logical" >  T  T  T </v>
   <v type="logical" >  T  T  T </v>
   <v type="logical" >  T  T  T </v>
   <v type="logical" >  T  T  T </v>
   <v type="logical" >  T  T  T </v>
   <v type="logical" >  T  T  T </v>
   <v type="logical" >  T  T  T </v>
   <v type="logical" >  T  T  T </v>
   <v type="logical" >  T  T  T </v>
   <v type="logical" >  T  T  T </v>
  </varray>
  <varray name="velocities" >
   <v>       0.00035280       0.00034129      -0.00012714 </v>
   <v>       0.00015601       0.00026713       0.00013391 </v>
   <v>      -0.00018053       0.00020755      -0.00005928 </v>
   <v>       0.00073524      -0.00037546      -0.00004908 </v>
   <v>      -0.00060701       0.00020418      -0.00026154 </v>
   <v>      -0.00026260       0.00022728      -0.00014857 </v>
   <v>       0.00025429       0.00061622       0.00003934 </v>
   <v>      -0.00037843       0.00041834       0.00004055 </v>
   <v>      -0.00040771       0.00032491      -0.00017169 </v>
   <v>      -0.00016035      -0.00013623       0.00006339 </v>
   <v>       0.00060320      -0.00074272      -0.00007036 </v>
   <v>       0.00042820      -0.00040896       0.00022947 </v>
   <v>      -0.00015566      -0.00002841       0.00003838 </v>
   <v>       0.00073077      -0.00047432       0.00009898 </v>
   <v>      -0.00111227       0.00090627       0.00026779 </v>
[...]
   <v type="logical" >  F  F  F </v>
   <v type="logical" >  F  F  F </v>
   <v type="logical" >  F  F  F </v>
   <v type="logical" >  F  F  F </v>
   <v type="logical" >  F  F  F </v>
   <v type="logical" >  F  F  F </v>
   <v type="logical" >  F  F  F </v>
   <v type="logical" >  F  F  F </v>
   <v type="logical" >  F  F  F </v>
   <v type="logical" >  F  F  F </v>
   <v type="logical" >  F  F  F </v>
   <v type="logical" >  F  F  F </v>
   <v type="logical" >  F  F  F </v>
   <v type="logical" >  F  F  F </v>
   <v type="logical" >  F  F  F </v>
   <v type="logical" >  F  F  F </v>
   <v type="logical" >  F  F  F </v>
   <v type="logical" >  F  F  F </v>
   <v type="logical" >  F  F  F </v>
   <v type="logical" >  F  F  F </v>
   <v type="logical" >  F  F  F </v>
   <v type="logical" >  F  F  F </v>
   <v type="logical" >  F  F  F </v>
   <v type="logical" >  F  F  F </v>
   <v type="logical" >  F  F  F </v>
   <v type="logical" >  F  F  F </v>
   <v type="logical" >  F  F  F </v>
   <v type="logical" >  F  F  F </v>
   <v type="logical" >  F  F  F </v>
   <v type="logical" >  F  F  F </v>
   <v type="logical" >  F  F  F </v>
   <v type="logical" >  F  F  F </v>
   <v type="logical" >  F  F  F </v>
   <v type="logical" >  F  F  F </v>
   <v type="logical" >  F  F  F </v>
   <v type="logical" >  F  F  F </v>
   <v type="logical" >  F  F  F </v>
   <v type="logical" >  F  F  F </v>
   <v type="logical" >  F  F  F </v>
   <v type="logical" >  F  F  F </v>
   <v type="logical" >  F  F  F </v>
   <v type="logical" >  F  F  F </v>
   <v type="logical" >  F  F  F </v>
   <v type="logical" >  F  F  F </v>
   <v type="logical" >  F  F  F </v>
   <v type="logical" >  F  F  F </v>
   <v type="logical" >  F  F  F </v>
   <v type="logical" >  F  F  F </v>
   <v type="logical" >  F  F  F </v>
   <v type="logical" >  F  F  F </v>
   <v type="logical" >  F  F  F </v>
   <v type="logical" >  F  F  F </v>
   <v type="logical" >  T  T  T </v>
   <v type="logical" >  T  T  T </v>
   <v type="logical" >  T  T  T </v>
   <v type="logical" >  T  T  T </v>
   <v type="logical" >  T  T  T </v>
   <v type="logical" >  T  T  T </v>
   <v type="logical" >  T  T  T </v>
   <v type="logical" >  T  T  T </v>
   <v type="logical" >  T  T  T </v>
   <v type="logical" >  T  T  T </v>
   <v type="logical" >  T  T  T </v>
   <v type="logical" >  T  T  T </v>
   <v type="logical" >  T  T  T </v>
   <v type="logical" >  T  T  T </v>
   <v type="logical" >  T  T  T </v>
   <v type="logical" >  T  T  T </v>
   <v type="logical" >  T  T  T </v>
   <v type="logical" >  T  T  T </v>
   <v type="logical" >  T  T  T </v>
   <v type="logical" >  T  T  T </v>
   <v type="logical" >  T  T  T </v>
   <v type="logical" >  T  T  T </v>
   <v type="logical" >  T  T  T </v>
   <v type="logical" >  T  T  T </v>
   <v type="logical" >  T  T  T </v>
   <v type="logical" >  T  T  T </v>
   <v type="logical" >  T  T  T </v>
   <v type="logical" >  T  T  T </v>
   <v type="logical" >  T  T  T </v>
   <v type="logical" >  T  T  T </v>
   <v type="logical" >  T  T  T </v>
   <v type="logical" >  T  T  T </v>
   <v type="logical" >  T  T  T </v>
   <v type="logical" >  T  T  T </v>
   <v type="logical" >  T  T  T </v>
   <v type="logical" >  T  T  T </v>
   <v type="logical" >  T  T  T </v>
   <v type="logical" >  T  T  T </v>
   <v type="logical" >  T  T  T </v>
   <v type="logical" >  T  T  T </v>
   <v type="logical" >  T  T  T </v>
   <v type="logical" >  T  T  T </v>
   <v type="logical" >  T  T  T </v>
   <v type="logical" >  T  T  T </v>
   <v type="logical" >  T  T  T </v>
   <v type="logical" >  T  T  T </v>
   <v type="logical" >  T  T  T </v>
   <v type="logical" >  T  T  T </v>
   <v type="logical" >  T  T  T </v>
   <v type="logical" >  T  T  T </v>
   <v type="logical" >  T  T  T </v>
   <v type="logical" >  T  T  T </v>
   <v type="logical" >  T  T  T </v>
   <v type="logical" >  T  T  T </v>
   <v type="logical" >  T  T  T </v>
   <v type="logical" >  T  T  T </v>
   <v type="logical" >  T  T  T </v>
   <v type="logical" >  T  T  T </v>
   <v type="logical" >  T  T  T </v>
   <v type="logical" >  T  T  T </v>
   <v type="logical" >  T  T  T </v>
   <v type="logical" >  T  T  T </v>
   <v type="logical" >  T  T  T </v>
   <v type="logical" >  T  T  T </v>
  </varray>
  <varray name="velocities" >
   <v>      -0.00020004       0.00003596       0.00013638 </v>
   <v>      -0.00003321       0.00071898      -0.00008080 </v>
   <v>      -0.00037931       0.00014282      -0.00007196 </v>
   <v>       0.00032509       0.00011179      -0.00017719 </v>
   <v>      -0.00018681       0.00027754      -0.00008275 </v>
   <v>       0.00016793      -0.00042324       0.00004788 </v>
   <v>       0.00038292       0.00027390      -0.00011224 </v>
   <v>       0.00089864      -0.00043169      -0.00021749 </v>
   <v>      -0.00015486      -0.00049474       0.00000657 </v>
   <v>      -0.00039758      -0.00018062      -0.00015962 </v>
   <v>       0.00009022      -0.00029465      -0.00009818 </v>
   <v>      -0.00006388      -0.00083897      -0.00008900 </v>
   <v>       0.00102192      -0.00091592      -0.00027924 </v>
   <v>       0.00076972      -0.00027226      -0.00022999 </v>
   <v>       0.00019242      -0.00074745      -0.00006313 </v>
   <v>       0.00139006      -0.00211832      -0.00010605 </v>
   <v>       0.00056736      -0.00050311      -0.00067452 </v>
   <v>       0.00028508       0.00291520       0.00010120 </v>
   <v>       0.00016937       0.00195938       0.00044039 </v>
   <v>      -0.00209788       0.00102292      -0.00019119 </v>
   <v>       0.00008454       0.00060786      -0.00070165 </v>
   <v>       0.00034076       0.00012842      -0.00003992 </v>
   <v>       0.00136986       0.00003785      -0.00054501 </v>
   <v>       0.00044947      -0.00120635       0.00005630 </v>
   <v>      -0.00018315      -0.00037706       0.00042607 </v>
   <v>      -0.00061895       0.00191345      -0.00001753 </v>
   <v>      -0.00197758      -0.00004171       0.00015066 </v>
   <v>      -0.00033745       0.00056729      -0.00005307 </v>
   <v>       0.00113090      -0.00165885       0.00030860 </v>
   <v>      -0.00174080      -0.00009697       0.00018140 </v>
   <v>       0.00217255      -0.00154203       0.00006230 </v>
   <v>       0.00146001      -0.00200239      -0.00012614 </v>
   <v>      -0.00160374       0.00201905       0.00007960 </v>
   <v>       0.00141467      -0.00066063       0.00029886 </v>
   <v>      -0.00255168       0.00164282       0.00014878 </v>
   <v>       0.00021615       0.00072751      -0.00009578 </v>
   <v>      -0.00044668      -0.00091484      -0.00019684 </v>
   <v>       0.00005834      -0.00014895       0.00046372 </v>
   <v>       0.00015520       0.00042671       0.00009402 </v>
   <v>       0.00068897      -0.00029017      -0.00007162 </v>
   <v>       0.00059881      -0.00070391      -0.00024071 </v>
   <v>      -0.00058280       0.00161754       0.00011958 </v>
   <v>       0.00127352      -0.00176477       0.00001007 </v>
   <v>      -0.00051802      -0.00011990      -0.00004278 </v>
   <v>      -0.00080550       0.00032672       0.00075021 </v>
   <v>      -0.00367492       0.00245345      -0.00066712 </v>
   <v>       0.00104541      -0.00105118      -0.00001027 </v>
   <v>      -0.00066623      -0.00028609      -0.00049033 </v>
   <v>       0.00090816      -0.00042939       0.00000481 </v>
   <v>      -0.00081532       0.00117263       0.00058118 </v>
   <v>       0.00029197      -0.00023862       0.00002401 </v>
   <v>      -0.00083040       0.00165049       0.00004450 </v>
   <v>      -0.00062635      -0.00034245       0.00001023 </v>
   <v>      -0.00075238      -0.00121136       0.00012173 </v>
   <v>      -0.00012281       0.00001119      -0.00002031 </v>
   <v>       0.00020668      -0.00010955       0.00012512 </v>
   <v>       0.00029450      -0.00027574      -0.00005992 </v>
   <v>      -0.00007947       0.00023470       0.00001182 </v>
   <v>       0.00011370      -0.00008386      -0.00003719 </v>
   <v>       0.00004611       0.00019894      -0.00003824 </v>
   <v>      -0.00003268      -0.00012167      -0.00001963 </v>
   <v>      -0.00004641       0.00020280       0.00005111 </v>
   <v>       0.00020737      -0.00020814      -0.00013310 </v>
   <v>       0.00030021      -0.00011839       0.00000015 </v>
   <v>       0.00016774      -0.00031972       0.00004073 </v>
   <v>       0.00007826      -0.00006749      -0.00005233 </v>
   <v>       0.00013315      -0.00018047      -0.00002135 </v>
   <v>      -0.00000865       0.00013668      -0.00000131 </v>
   <v>       0.00010643      -0.00010694       0.00001779 </v>
   <v>       0.00003353       0.00001205       0.00006654 </v>
   <v>      -0.00001684       0.00017615      -0.00000428 </v>
   <v>       0.00010686      -0.00032810      -0.00005082 </v>
   <v>       0.00001208      -0.00012762       0.00000271 </v>
   <v>      -0.00010338       0.00021899      -0.00002730 </v>
   <v>       0.00000005       0.00004238       0.00000588 </v>
   <v>      -0.00001576      -0.00012534       0.00007054 </v>
   <v>       0.00005553      -0.00016279       0.00002924 </v>
   <v>      -0.00009859       0.00022376      -0.00007224 </v>
   <v>      -0.00020157       0.00004395       0.00002142 </v>
   <v>      -0.00000633       0.00009755      -0.00004656 </v>
   <v>       0.00003938      -0.00000089       0.00000369 </v>
   <v>       0.00025992      -0.00010439      -0.00010022 </v>
   <v>       0.00009016      -0.00016504       0.00000293 </v>
   <v>      -0.00005041       0.00024324       0.00004945 </v>
   <v>      -0.00001600      -0.00004165       0.00002536 </v>
   <v>      -0.00008218       0.00011942       0.00000567 </v>
   <v>      -0.00025535       0.00003704      -0.00002548 </v>
   <v>       0.00040986      -0.00013180       0.00005467 </v>
   <v>      -0.00003595       0.00002467      -0.00006471 </v>
   <v>       0.00003884       0.00010018       0.00004518 </v>
   <v>      -0.00034662       0.00029230       0.00006057 </v>
   <v>       0.00000289      -0.00002594       0.00005014 </v>
   <v>       0.00014949      -0.00007949       0.00000977 </v>
   <v>       0.00000432       0.00003315      -0.00000277 </v>
   <v>       0.00027092       0.00002246      -0.00009472 </v>
   <v>      -0.00017964      -0.00005762       0.00004148 </v>
   <v>       0.00006253      -0.00003512      -0.00005371 </v>
   <v>       0.00029965      -0.00005057       0.00006126 </v>
   <v>      -0.00006236      -0.00026017      -0.00002727 </v>
   <v>       0.00009534      -0.00012177       0.00000488 </v>
   <v>      -0.00007740       0.00006689       0.00003749 </v>
   <v>       0.00010116       0.00002992       0.00000080 </v>
   <v>       0.00012890      -0.00007123       0.00002360 </v>
   <v>      -0.00006809      -0.00002531       0.00003535 </v>
   <v>       0.00021585       0.00003848       0.00005706 </v>
   <v>      -0.00018764      -0.00028759       0.00004439 </v>
   <v>      -0.00017211       0.00002797       0.00004459 </v>
   <v>       0.00015450      -0.00004863      -0.00007844 </v>
   <v>       0.00004831       0.00009461      -0.00001350 </v>
   <v>      -0.00013901      -0.00007533      -0.00002763 </v>
   <v>      -0.00016318       0.00005233      -0.00002147 </v>
   <v>       0.00015656      -0.00005998      -0.00005013 </v>
   <v>      -0.00007768       0.00003521      -0.00003798 </v>
   <v>      -0.00012790       0.00015925       0.00005632 </v>
   <v>      -0.00039516       0.00013342      -0.00001702 </v>
   <v>       0.00010865       0.00008655       0.00003593 </v>
   <v>      -0.00009525       0.00001986      -0.00006324 </v>
   <v>       0.00022460       0.00000179       0.00000213 </v>
   <v>       0.00000000       0.00000000       0.00000000 </v>
   <v>       0.00000000       0.00000000       0.00000000 </v>
   <v>       0.00000000       0.00000000       0.00000000 </v>
   <v>       0.00000000       0.00000000       0.00000000 </v>
   <v>       0.00000000       0.00000000       0.00000000 </v>
   <v>       0.00000000       0.00000000       0.00000000 </v>
   <v>       0.00000000       0.00000000       0.00000000 </v>
   <v>       0.00000000       0.00000000       0.00000000 </v>
   <v>       0.00000000       0.00000000       0.00000000 </v>
   <v>       0.00000000       0.00000000       0.00000000 </v>
   <v>       0.00000000       0.00000000       0.00000000 </v>
   <v>       0.00000000       0.00000000       0.00000000 </v>
   <v>       0.00000000       0.00000000       0.00000000 </v>
   <v>       0.00000000       0.00000000       0.00000000 </v>
   <v>       0.00000000       0.00000000       0.00000000 </v>
   <v>       0.00000000       0.00000000       0.00000000 </v>
   <v>       0.00000000       0.00000000       0.00000000 </v>
   <v>       0.00000000       0.00000000       0.00000000 </v>
   <v>       0.00000000       0.00000000       0.00000000 </v>
   <v>       0.00000000       0.00000000       0.00000000 </v>
   <v>       0.00000000       0.00000000       0.00000000 </v>
   <v>       0.00000000       0.00000000       0.00000000 </v>
   <v>       0.00000000       0.00000000       0.00000000 </v>
   <v>       0.00000000       0.00000000       0.00000000 </v>
   <v>       0.00000000       0.00000000       0.00000000 </v>
   <v>       0.00000000       0.00000000       0.00000000 </v>
   <v>       0.00000000       0.00000000       0.00000000 </v>
   <v>       0.00000000       0.00000000       0.00000000 </v>
   <v>       0.00000000       0.00000000       0.00000000 </v>
   <v>       0.00000000       0.00000000       0.00000000 </v>
   <v>       0.00000000       0.00000000       0.00000000 </v>
   <v>       0.00000000       0.00000000       0.00000000 </v>
   <v>       0.00000000       0.00000000       0.00000000 </v>
   <v>       0.00000000       0.00000000       0.00000000 </v>
   <v>       0.00000000       0.00000000       0.00000000 </v>
   <v>       0.00000000       0.00000000       0.00000000 </v>
   <v>       0.00000000       0.00000000       0.00000000 </v>
   <v>       0.00000000       0.00000000       0.00000000 </v>
   <v>       0.00000000       0.00000000       0.00000000 </v>
   <v>       0.00000000       0.00000000       0.00000000 </v>
   <v>       0.00000000       0.00000000       0.00000000 </v>
   <v>       0.00000000       0.00000000       0.00000000 </v>
   <v>       0.00000000       0.00000000       0.00000000 </v>
   <v>       0.00000000       0.00000000       0.00000000 </v>
   <v>       0.00000000       0.00000000       0.00000000 </v>
   <v>       0.00000000       0.00000000       0.00000000 </v>
   <v>       0.00000000       0.00000000       0.00000000 </v>
   <v>       0.00000000       0.00000000       0.00000000 </v>
   <v>       0.00000000       0.00000000       0.00000000 </v>
   <v>       0.00000000       0.00000000       0.00000000 </v>
   <v>       0.00000000       0.00000000       0.00000000 </v>
   <v>       0.00000000       0.00000000       0.00000000 </v>
   <v>       0.00000000       0.00000000       0.00000000 </v>
   <v>       0.00000000       0.00000000       0.00000000 </v>
   <v>       0.00000000       0.00000000       0.00000000 </v>
   <v>       0.00000000       0.00000000       0.00000000 </v>
   <v>       0.00000000       0.00000000       0.00000000 </v>
   <v>       0.00000000       0.00000000       0.00000000 </v>
   <v>       0.00000000       0.00000000       0.00000000 </v>
   <v>       0.00000000       0.00000000       0.00000000 </v>
   <v>       0.00000000       0.00000000       0.00000000 </v>
   <v>       0.00000000       0.00000000       0.00000000 </v>
   <v>       0.00000000       0.00000000       0.00000000 </v>
   <v>       0.00000000       0.00000000       0.00000000 </v>
   <v>       0.00021463      -0.00016891       0.00001046 </v>
   <v>       0.00006496      -0.00035649      -0.00011022 </v>
   <v>      -0.00012520       0.00011007      -0.00005857 </v>
   <v>       0.00003241       0.00003741       0.00003087 </v>
   <v>       0.00042012      -0.00003943      -0.00010035 </v>
   <v>       0.00011856      -0.00029649       0.00006138 </v>
   <v>       0.00001654      -0.00010159      -0.00008404 </v>
   <v>      -0.00007480       0.00012518      -0.00010882 </v>
   <v>      -0.00013263       0.00000814      -0.00011085 </v>
   <v>      -0.00003371       0.00017690      -0.00001326 </v>
   <v>      -0.00017592       0.00042170      -0.00000531 </v>
   <v>       0.00006167      -0.00002175      -0.00004264 </v>
   <v>       0.00025313      -0.00019118      -0.00004038 </v>
   <v>      -0.00024453       0.00004584       0.00002833 </v>
   <v>      -0.00006256       0.00000898      -0.00000777 </v>
   <v>      -0.00021491      -0.00002655      -0.00004377 </v>
   <v>      -0.00002096      -0.00018425       0.00001678 </v>
   <v>      -0.00000574       0.00012184      -0.00008914 </v>
   <v>      -0.00006196       0.00008268      -0.00014650 </v>
   <v>       0.00008543      -0.00003845      -0.00001843 </v>
   <v>       0.00012029       0.00003819      -0.00000360 </v>
   <v>       0.00009710      -0.00015335      -0.00005745 </v>
   <v>      -0.00008934      -0.00019942      -0.00009469 </v>
   <v>       0.00003181       0.00002082       0.00008421 </v>
   <v>       0.00022381       0.00005548      -0.00018166 </v>
   <v>       0.00031853      -0.00027491      -0.00008923 </v>
   <v>      -0.00006463       0.00004959      -0.00002934 </v>
   <v>      -0.00001845      -0.00002699       0.00001014 </v>
   <v>       0.00016418      -0.00010941      -0.00012076 </v>
   <v>      -0.00005656      -0.00008989      -0.00005466 </v>
   <v>       0.00008578      -0.00003894      -0.00010064 </v>
   <v>       0.00001492       0.00005980       0.00006362 </v>
   <v>      -0.00002094      -0.00009698       0.00001365 </v>
   <v>      -0.00004818       0.00008292      -0.00004078 </v>
   <v>       0.00001401       0.00001067      -0.00010561 </v>
   <v>      -0.00004084      -0.00008637      -0.00010262 </v>
   <v>       0.00021603      -0.00000665       0.00009950 </v>
   <v>       0.00010019       0.00000258      -0.00002672 </v>
   <v>      -0.00007335       0.00012222      -0.00008964 </v>
   <v>      -0.00002466       0.00005647       0.00008019 </v>
   <v>       0.00013639       0.00008279       0.00006694 </v>
   <v>      -0.00017531      -0.00001353       0.00000654 </v>
   <v>       0.00031046      -0.00052870      -0.00001172 </v>
   <v>      -0.00009746       0.00012501       0.00002875 </v>
   <v>       0.00022850      -0.00002891      -0.00016938 </v>
   <v>      -0.00047796       0.00015110      -0.00009506 </v>
   <v>      -0.00018650       0.00007248      -0.00009004 </v>
   <v>      -0.00010173       0.00029121       0.00001836 </v>
   <v>       0.00010130      -0.00027176      -0.00009902 </v>
   <v>       0.00007995      -0.00028445      -0.00003005 </v>
   <v>      -0.00002313      -0.00001526      -0.00006497 </v>
   <v>      -0.00018536       0.00013709       0.00002080 </v>
   <v>       0.00020450      -0.00006732      -0.00004185 </v>
   <v>      -0.00031190       0.00024409       0.00002853 </v>
   <v>       0.00020249       0.00029152      -0.00000273 </v>
   <v>       0.00016866       0.00010322       0.00011476 </v>
   <v>      -0.00010377      -0.00005979      -0.00012067 </v>
   <v>       0.00014227       0.00016543      -0.00008485 </v>
   <v>      -0.00004032      -0.00000349      -0.00000432 </v>
   <v>       0.00026457      -0.00004672      -0.00008298 </v>
   <v>       0.00002944      -0.00003213      -0.00005275 </v>
   <v>      -0.00009315       0.00025430      -0.00012337 </v>
   <v>      -0.00016924      -0.00006128       0.00001261 </v>
   <v>      -0.00025824      -0.00026714      -0.00000079 </v>
  </varray>
  <nose>
   <v>      -1.00000000       0.00000000     300.00000000     300.00000000 </v>
  </nose>
 </structure>
</modeling>
