<?xml version="1.0" encoding="ISO-8859-1"?>
<modeling>
 <generator>
  <i name="program" type="string">vasp </i>
  <i name="version" type="string">6.3.2  </i>
  <i name="subversion" type="string">27Jun22 (build Oct 28 2022 14:47:18) complex                          parallel </i>
  <i name="platform" type="string">LinuxIFC </i>
  <i name="date" type="string">2023 04 28 </i>
  <i name="time" type="string">01:30:53 </i>
 </generator>
 <incar>
  <i type="string" name="SYSTEM">Si_surface_6layer</i>
  <i type="string" name="PREC">Accurate</i>
  <i type="int" name="NELMIN">     5</i>
  <i type="int" name="IBRION">     0</i>
  <i name="EDIFF">      0.00010000</i>
  <i name="EDIFFG">     -0.00950000</i>
  <i type="int" name="NSW">   100</i>
  <i type="int" name="ISIF">     2</i>
  <i type="int" name="ISYM">     0</i>
  <i name="ENCUT">    540.00000000</i>
  <i type="int" name="NBANDS">   640</i>
  <i name="POTIM">      1.00000000</i>
  <i name="TEBEG">    300.00000000</i>
  <i name="SMASS">     -1.00000000</i>
  <i type="int" name="ISMEAR">     0</i>
  <i name="SIGMA">      0.01000000</i>
  <i type="int" name="NWRITE">     1</i>
  <i type="int" name="IDIPOL">     3</i>
  <i type="int" name="IVDW">    12</i>
  <i type="int" name="MDALGO">     2</i>
 </incar>
 <primitive_cell>
  <structure name="primitive_cell" >
   <crystal>
    <varray name="basis" >
     <v>      15.33298779       0.00000000       0.00000000 </v>
     <v>       7.66649389      13.27875694       0.00000000 </v>
     <v>       0.00000000       0.00000000      41.55799484 </v>
    </varray>
    <i name="volume">   8461.33316923 </i>
    <varray name="rec_basis" >
     <v>       0.06521886      -0.03765413       0.00000000 </v>
     <v>       0.00000000       0.07530825       0.00000000 </v>
     <v>       0.00000000       0.00000000       0.02406276 </v>
    </varray>
   </crystal>
   <varray name="positions" >
    <v>       0.62356774       0.42725863       0.57340898 </v>
    <v>       0.55887199       0.39469334       0.56385946 </v>
    <v>       0.62730757       0.50371117       0.55531024 </v>
    <v>       0.51384659       0.41626159       0.53144167 </v>
    <v>       0.52191690       0.49087663       0.51155236 </v>
    <v>       0.57290888       0.54140238       0.52496371 </v>
    <v>       0.68314750       0.55196186       0.56635721 </v>
    <v>       0.66928976       0.63918906       0.55205977 </v>
    <v>       0.60400018       0.68268650       0.52545902 </v>
    <v>       0.56097896       0.63460032       0.51036700 </v>
    <v>       0.54765204       0.32962663       0.58515287 </v>
    <v>       0.49015367       0.28849011       0.57744341 </v>
    <v>       0.44224308       0.31032601       0.54737255 </v>
    <v>       0.44959172       0.37429269       0.52440023 </v>
    <v>       0.58561338       0.31472762       0.60843432 </v>
    <v>       0.47448885       0.24413543       0.59538302 </v>
    <v>       0.39096625       0.28080265       0.54231392 </v>
    <v>       0.42128360       0.38057401       0.49971486 </v>
    <v>       0.67625959       0.39391145       0.59370077 </v>
    <v>       0.50947112       0.66585127       0.48965573 </v>
    <v>       0.59568258       0.75476373       0.51712835 </v>
    <v>       0.73486540       0.51837640       0.58619857 </v>
    <v>       0.71001940       0.67473626       0.56306327 </v>
    <v>       0.00904117       0.99183180       0.01960847 </v>
    <v>       0.50378741       0.99361682       0.02305282 </v>
    <v>       0.00191361       0.51363347       0.02171836 </v>
    <v>       0.49113110       0.49060684       0.02117123 </v>
    <v>       0.23970527       0.00075414       0.01719306 </v>
    <v>       0.76414123       0.00163301       0.02434474 </v>
    <v>       0.24575028       0.48574514       0.02006938 </v>
    <v>       0.74662853       0.51414390       0.02218570 </v>
    <v>       0.99532904       0.25314777       0.02277605 </v>
    <v>       0.50074381       0.25474580       0.01915039 </v>
    <v>       0.01869165       0.73861465       0.01963014 </v>
    <v>       0.49055760       0.76072725       0.01893267 </v>
    <v>       0.25233067       0.26080193       0.02073040 </v>
    <v>       0.74293987       0.26236098       0.02116347 </v>
    <v>       0.23227930       0.76670609       0.02245753 </v>
    <v>       0.74216643       0.75347019       0.02114691 </v>
    <v>       0.00240275       0.99436762       0.49074347 </v>
    <v>       0.49870860       0.98895685       0.48752078 </v>
    <v>       0.00196359       0.50356651       0.48842660 </v>
    <v>       0.26029564       0.00149490       0.48818326 </v>
    <v>       0.75316710       0.99955164       0.48903515 </v>
    <v>       0.26464128       0.50227763       0.48868435 </v>
    <v>       0.75601657       0.50491397       0.49362235 </v>
    <v>       0.98657308       0.24268318       0.48660475 </v>
    <v>       0.52555009       0.20860452       0.48962399 </v>
    <v>       0.99200205       0.75984832       0.49062945 </v>
    <v>       0.47659662       0.80146525       0.48218336 </v>
    <v>       0.24267220       0.25587671       0.48933883 </v>
    <v>       0.74091147       0.26688307       0.48800183 </v>
    <v>       0.26193988       0.75871626       0.49053005 </v>
    <v>       0.73769252       0.75329215       0.49007311 </v>
    <v>       0.00097282       0.00381741       0.05539400 </v>
    <v>       0.50380952       0.99982848       0.05932609 </v>
    <v>       0.99356303       0.50654174       0.05751107 </v>
    <v>       0.49917929       0.49720585       0.05700874 </v>
    <v>       0.24270007       0.00344850       0.05552058 </v>
    <v>       0.75595549       0.99644831       0.05860343 </v>
    <v>       0.24478370       0.49498483       0.05635714 </v>
    <v>       0.73948588       0.50548404       0.05689706 </v>
    <v>       0.99355590       0.25578915       0.05896973 </v>
    <v>       0.50377974       0.24758782       0.05506568 </v>
    <v>       0.00644613       0.74880005       0.05593040 </v>
    <v>       0.49599690       0.75350485       0.05547498 </v>
    <v>       0.24649746       0.25167545       0.05617726 </v>
    <v>       0.74347430       0.25612367       0.05715865 </v>
    <v>       0.24407317       0.75309752       0.05890569 </v>
    <v>       0.74655539       0.75157168       0.05733317 </v>
    <v>       0.83916337       0.82988990       0.07224861 </v>
    <v>       0.33181387       0.83175212       0.07393706 </v>
    <v>       0.83022715       0.33874970       0.07502111 </v>
    <v>       0.33517972       0.33200063       0.07545815 </v>
    <v>       0.07727858       0.84231671       0.07713761 </v>
    <v>       0.58308675       0.83481250       0.07699040 </v>
    <v>       0.08130647       0.33248753       0.07576005 </v>
    <v>       0.57479419       0.33326756       0.07497365 </v>
    <v>       0.83892926       0.07872882       0.07491852 </v>
    <v>       0.33014670       0.08103199       0.07422279 </v>
    <v>       0.82636735       0.58203142       0.07394958 </v>
    <v>       0.33501225       0.58173138       0.07353263 </v>
    <v>       0.08019664       0.08864531       0.07486948 </v>
    <v>       0.58402186       0.08607015       0.07615186 </v>
    <v>       0.08081283       0.58679114       0.07623886 </v>
    <v>       0.57843486       0.58506069       0.07592905 </v>
    <v>       0.83165332       0.83574493       0.12980096 </v>
    <v>       0.33341383       0.83644388       0.13092128 </v>
    <v>       0.83578710       0.33065753       0.13229823 </v>
    <v>       0.33511170       0.33782871       0.13127907 </v>
    <v>       0.08840911       0.83196247       0.13354646 </v>
    <v>       0.57935085       0.82570357       0.13251090 </v>
    <v>       0.07797246       0.33480816       0.13206770 </v>
    <v>       0.58817569       0.32677798       0.13109845 </v>
    <v>       0.83207598       0.07702870       0.13053090 </v>
    <v>       0.32580620       0.09693989       0.13142272 </v>
    <v>       0.83367139       0.58678417       0.12958411 </v>
    <v>       0.33572785       0.58706423       0.13088781 </v>
    <v>       0.08232760       0.08776341       0.13146344 </v>
    <v>       0.57863726       0.08438904       0.13222866 </v>
    <v>       0.08788950       0.58386391       0.13260642 </v>
    <v>       0.58792698       0.57920946       0.13205075 </v>
    <v>       0.66938327       0.65925163       0.15081442 </v>
    <v>       0.17621483       0.66273454       0.15104523 </v>
    <v>       0.66501879       0.16075027       0.15067047 </v>
    <v>       0.16672420       0.17031021       0.15055450 </v>
    <v>       0.90933002       0.67738100       0.15040372 </v>
    <v>       0.41745625       0.67101980       0.14970503 </v>
    <v>       0.91696836       0.16002893       0.15138328 </v>
    <v>       0.41470807       0.17361503       0.15030450 </v>
    <v>       0.66449301       0.91171522       0.14953450 </v>
    <v>       0.16773593       0.91625277       0.15156573 </v>
    <v>       0.67163677       0.41319044       0.14997125 </v>
    <v>       0.16384324       0.41898053       0.15060441 </v>
    <v>       0.91966086       0.91450362       0.15091631 </v>
    <v>       0.41351616       0.92327441       0.15124824 </v>
    <v>       0.91372946       0.41947805       0.15087894 </v>
    <v>       0.42018550       0.41769446       0.14934503 </v>
    <v>       0.66691256       0.66650248       0.20705400 </v>
    <v>       0.16691388       0.66649014       0.20705898 </v>
    <v>       0.66690344       0.16650572       0.20706598 </v>
    <v>       0.16684061       0.16660814       0.20708179 </v>
    <v>       0.91692531       0.66649854       0.20705917 </v>
    <v>       0.41692519       0.66647869       0.20706536 </v>
    <v>       0.91692513       0.16650243       0.20707472 </v>
    <v>       0.41696414       0.16651435       0.20706744 </v>
    <v>       0.66691798       0.91648233       0.20704252 </v>
    <v>       0.16694951       0.91644073       0.20704633 </v>
    <v>       0.66691595       0.41648963       0.20705459 </v>
    <v>       0.16692059       0.41647589       0.20705572 </v>
    <v>       0.91694874       0.91646326       0.20705239 </v>
    <v>       0.41701031       0.91640425       0.20704821 </v>
    <v>       0.91693836       0.41649175       0.20706075 </v>
    <v>       0.41692036       0.41647944       0.20706344 </v>
    <v>       0.50027961       0.49979386       0.22588077 </v>
    <v>       0.00028667       0.49982324       0.22588116 </v>
    <v>       0.50028664       0.99980050       0.22585523 </v>
    <v>       0.00032078       0.99976605       0.22586109 </v>
    <v>       0.75028151       0.49981755       0.22585414 </v>
    <v>       0.25025454       0.49979892       0.22586794 </v>
    <v>       0.75028825       0.99977207       0.22584361 </v>
    <v>       0.25032210       0.99981099       0.22577891 </v>
    <v>       0.50031888       0.74973106       0.22591361 </v>
    <v>       0.00028389       0.74979836       0.22589213 </v>
    <v>       0.50029421       0.24984773       0.22593303 </v>
    <v>       0.00016690       0.24989246       0.22594903 </v>
    <v>       0.75026935       0.74982309       0.22586657 </v>
    <v>       0.25028658       0.74977243       0.22589330 </v>
    <v>       0.75025457       0.24982803       0.22588788 </v>
    <v>       0.25034884       0.24982284       0.22589789 </v>
    <v>       0.50049311       0.49963021       0.28230625 </v>
    <v>       0.00050731       0.49968964       0.28230852 </v>
    <v>       0.50051337       0.99962586       0.28226966 </v>
    <v>       0.00059072       0.99956340       0.28227770 </v>
    <v>       0.75046229       0.49970725       0.28226706 </v>
    <v>       0.25044429       0.49965557       0.28228563 </v>
    <v>       0.75051129       0.99957675       0.28225109 </v>
    <v>       0.25060219       0.99960679       0.28215271 </v>
    <v>       0.50056702       0.74950278       0.28235546 </v>
    <v>       0.00050130       0.74963838       0.28232342 </v>
    <v>       0.50053847       0.24974354       0.28238246 </v>
    <v>       0.00022542       0.24985044       0.28240287 </v>
    <v>       0.75046211       0.74969256       0.28228703 </v>
    <v>       0.25051790       0.74957991       0.28232458 </v>
    <v>       0.75041085       0.24970731       0.28231668 </v>
    <v>       0.25066370       0.24970363       0.28232852 </v>
    <v>       0.33391163       0.33313787       0.30122888 </v>
    <v>       0.83340478       0.33325410       0.30123815 </v>
    <v>       0.33380580       0.83306384       0.30105916 </v>
    <v>       0.83384037       0.83295310       0.30113372 </v>
    <v>       0.58387220       0.33310598       0.30124068 </v>
    <v>       0.08398666       0.33295631       0.30108732 </v>
    <v>       0.58382905       0.83298177       0.30112001 </v>
    <v>       0.08388577       0.83291119       0.30115694 </v>
    <v>       0.33384538       0.58284026       0.30112976 </v>
    <v>       0.83381855       0.58302647       0.30109686 </v>
    <v>       0.33384517       0.08289958       0.30104592 </v>
    <v>       0.83388197       0.08288339       0.30102268 </v>
    <v>       0.58398402       0.58273447       0.30118588 </v>
    <v>       0.08386202       0.58297580       0.30116987 </v>
    <v>       0.58390039       0.08290785       0.30108312 </v>
    <v>       0.08406826       0.08289581       0.30098030 </v>
    <v>       0.33293565       0.34017079       0.36146318 </v>
    <v>       0.82974589       0.34222921       0.35849284 </v>
    <v>       0.33768296       0.82977687       0.35695757 </v>
    <v>       0.83401858       0.83862680       0.35892258 </v>
    <v>       0.58579598       0.33121573       0.35750973 </v>
    <v>       0.08215042       0.34045510       0.35773327 </v>
    <v>       0.58234761       0.84110729       0.35677561 </v>
    <v>       0.08647718       0.83735333       0.35784426 </v>
    <v>       0.33129619       0.58355984       0.35852145 </v>
    <v>       0.83033760       0.59119488       0.35824583 </v>
    <v>       0.32723440       0.09389845       0.35598982 </v>
    <v>       0.83024218       0.08689472       0.35686005 </v>
    <v>       0.57414459       0.59024852       0.35756399 </v>
    <v>       0.08272599       0.58592807       0.35848810 </v>
    <v>       0.57958224       0.08761941       0.35779828 </v>
    <v>       0.07578516       0.08488444       0.36018059 </v>
    <v>       0.15429871       0.17094433       0.37759961 </v>
    <v>       0.66827173       0.16521116       0.37667500 </v>
    <v>       0.16388766       0.68007163       0.37935714 </v>
    <v>       0.66051870       0.66907843       0.37780502 </v>
    <v>       0.40973111       0.17193140       0.37840158 </v>
    <v>       0.91227280       0.17147288       0.37535971 </v>
    <v>       0.41099713       0.66571441       0.37860112 </v>
    <v>       0.91422626       0.67005888       0.37790628 </v>
    <v>       0.16297848       0.42112964       0.37994961 </v>
    <v>       0.65812386       0.42539685       0.37729438 </v>
    <v>       0.17439689       0.91557349       0.37668631 </v>
    <v>       0.66649794       0.92437082       0.37681295 </v>
    <v>       0.41841980       0.41741665       0.38014266 </v>
    <v>       0.91635399       0.42404127       0.37731422 </v>
    <v>       0.41280257       0.92937367       0.37148238 </v>
    <v>       0.92059113       0.91915368       0.37872907 </v>
    <v>       0.16243315       0.17329903       0.43355757 </v>
    <v>       0.67399658       0.16370338       0.43285198 </v>
    <v>       0.16681007       0.67424438       0.43630871 </v>
    <v>       0.66005263       0.67422471       0.43529795 </v>
    <v>       0.41942704       0.16725129       0.43572608 </v>
    <v>       0.91217488       0.16920318       0.43302871 </v>
    <v>       0.42483153       0.66264445       0.43606200 </v>
    <v>       0.91343205       0.67698297       0.43562850 </v>
    <v>       0.16975638       0.41648113       0.43693172 </v>
    <v>       0.66446925       0.41937446       0.43540784 </v>
    <v>       0.16939244       0.91212534       0.43435470 </v>
    <v>       0.66986505       0.91920742       0.43269949 </v>
    <v>       0.42123382       0.42304460       0.44135338 </v>
    <v>       0.91269717       0.42333356       0.43210341 </v>
    <v>       0.40739553       0.92770534       0.42775373 </v>
    <v>       0.91853723       0.91950791       0.43408056 </v>
    <v>       0.99671563       0.00069404       0.45462567 </v>
    <v>       0.50157557       0.99490400       0.45102765 </v>
    <v>       0.99990148       0.50304538       0.45326111 </v>
    <v>       0.50718242       0.50085654       0.46374869 </v>
    <v>       0.24826461       0.00453200       0.45221988 </v>
    <v>       0.75696591       0.00012169       0.45285196 </v>
    <v>       0.24849120       0.50715707       0.45396098 </v>
    <v>       0.75267140       0.50538501       0.45383194 </v>
    <v>       0.98852431       0.25632566       0.45070364 </v>
    <v>       0.50953710       0.23951304       0.45522289 </v>
    <v>       0.99777614       0.75948744       0.45431462 </v>
    <v>       0.48884802       0.76845054       0.44738984 </v>
    <v>       0.24797707       0.25494761       0.45317371 </v>
    <v>       0.75071673       0.25484972       0.45289254 </v>
    <v>       0.25626783       0.75113478       0.45428857 </v>
    <v>       0.74708895       0.74923005       0.45405105 </v>
   </varray>
  </structure>
  <varray name="primitive_index" >
   <v type="int" >        1 </v>
   <v type="int" >        2 </v>
   <v type="int" >        3 </v>
   <v type="int" >        4 </v>
   <v type="int" >        5 </v>
   <v type="int" >        6 </v>
   <v type="int" >        7 </v>
   <v type="int" >        8 </v>
   <v type="int" >        9 </v>
   <v type="int" >       10 </v>
   <v type="int" >       11 </v>
   <v type="int" >       12 </v>
   <v type="int" >       13 </v>
   <v type="int" >       14 </v>
   <v type="int" >       15 </v>
   <v type="int" >       16 </v>
   <v type="int" >       17 </v>
   <v type="int" >       18 </v>
   <v type="int" >       19 </v>
   <v type="int" >       20 </v>
   <v type="int" >       21 </v>
   <v type="int" >       22 </v>
   <v type="int" >       23 </v>
   <v type="int" >       24 </v>
   <v type="int" >       25 </v>
   <v type="int" >       26 </v>
   <v type="int" >       27 </v>
   <v type="int" >       28 </v>
   <v type="int" >       29 </v>
   <v type="int" >       30 </v>
   <v type="int" >       31 </v>
   <v type="int" >       32 </v>
   <v type="int" >       33 </v>
   <v type="int" >       34 </v>
   <v type="int" >       35 </v>
   <v type="int" >       36 </v>
   <v type="int" >       37 </v>
   <v type="int" >       38 </v>
   <v type="int" >       39 </v>
   <v type="int" >       40 </v>
   <v type="int" >       41 </v>
   <v type="int" >       42 </v>
   <v type="int" >       43 </v>
   <v type="int" >       44 </v>
   <v type="int" >       45 </v>
   <v type="int" >       46 </v>
   <v type="int" >       47 </v>
   <v type="int" >       48 </v>
   <v type="int" >       49 </v>
   <v type="int" >       50 </v>
   <v type="int" >       51 </v>
   <v type="int" >       52 </v>
   <v type="int" >       53 </v>
   <v type="int" >       54 </v>
   <v type="int" >       55 </v>
   <v type="int" >       56 </v>
   <v type="int" >       57 </v>
   <v type="int" >       58 </v>
   <v type="int" >       59 </v>
   <v type="int" >       60 </v>
   <v type="int" >       61 </v>
   <v type="int" >       62 </v>
   <v type="int" >       63 </v>
   <v type="int" >       64 </v>
   <v type="int" >       65 </v>
   <v type="int" >       66 </v>
   <v type="int" >       67 </v>
   <v type="int" >       68 </v>
   <v type="int" >       69 </v>
   <v type="int" >       70 </v>
   <v type="int" >       71 </v>
   <v type="int" >       72 </v>
   <v type="int" >       73 </v>
   <v type="int" >       74 </v>
   <v type="int" >       75 </v>
   <v type="int" >       76 </v>
   <v type="int" >       77 </v>
   <v type="int" >       78 </v>
   <v type="int" >       79 </v>
   <v type="int" >       80 </v>
   <v type="int" >       81 </v>
   <v type="int" >       82 </v>
   <v type="int" >       83 </v>
   <v type="int" >       84 </v>
   <v type="int" >       85 </v>
   <v type="int" >       86 </v>
   <v type="int" >       87 </v>
   <v type="int" >       88 </v>
   <v type="int" >       89 </v>
   <v type="int" >       90 </v>
   <v type="int" >       91 </v>
   <v type="int" >       92 </v>
   <v type="int" >       93 </v>
   <v type="int" >       94 </v>
   <v type="int" >       95 </v>
   <v type="int" >       96 </v>
   <v type="int" >       97 </v>
   <v type="int" >       98 </v>
   <v type="int" >       99 </v>
   <v type="int" >      100 </v>
   <v type="int" >      101 </v>
   <v type="int" >      102 </v>
   <v type="int" >      103 </v>
   <v type="int" >      104 </v>
   <v type="int" >      105 </v>
   <v type="int" >      106 </v>
   <v type="int" >      107 </v>
   <v type="int" >      108 </v>
   <v type="int" >      109 </v>
   <v type="int" >      110 </v>
   <v type="int" >      111 </v>
   <v type="int" >      112 </v>
   <v type="int" >      113 </v>
   <v type="int" >      114 </v>
   <v type="int" >      115 </v>
   <v type="int" >      116 </v>
   <v type="int" >      117 </v>
   <v type="int" >      118 </v>
   <v type="int" >      119 </v>
   <v type="int" >      120 </v>
   <v type="int" >      121 </v>
   <v type="int" >      122 </v>
   <v type="int" >      123 </v>
   <v type="int" >      124 </v>
   <v type="int" >      125 </v>
   <v type="int" >      126 </v>
   <v type="int" >      127 </v>
   <v type="int" >      128 </v>
   <v type="int" >      129 </v>
   <v type="int" >      130 </v>
   <v type="int" >      131 </v>
   <v type="int" >      132 </v>
   <v type="int" >      133 </v>
   <v type="int" >      134 </v>
   <v type="int" >      135 </v>
   <v type="int" >      136 </v>
   <v type="int" >      137 </v>
   <v type="int" >      138 </v>
   <v type="int" >      139 </v>
   <v type="int" >      140 </v>
   <v type="int" >      141 </v>
   <v type="int" >      142 </v>
   <v type="int" >      143 </v>
   <v type="int" >      144 </v>
   <v type="int" >      145 </v>
   <v type="int" >      146 </v>
   <v type="int" >      147 </v>
   <v type="int" >      148 </v>
   <v type="int" >      149 </v>
   <v type="int" >      150 </v>
   <v type="int" >      151 </v>
   <v type="int" >      152 </v>
   <v type="int" >      153 </v>
   <v type="int" >      154 </v>
   <v type="int" >      155 </v>
   <v type="int" >      156 </v>
   <v type="int" >      157 </v>
   <v type="int" >      158 </v>
   <v type="int" >      159 </v>
   <v type="int" >      160 </v>
   <v type="int" >      161 </v>
   <v type="int" >      162 </v>
   <v type="int" >      163 </v>
   <v type="int" >      164 </v>
   <v type="int" >      165 </v>
   <v type="int" >      166 </v>
   <v type="int" >      167 </v>
   <v type="int" >      168 </v>
   <v type="int" >      169 </v>
   <v type="int" >      170 </v>
   <v type="int" >      171 </v>
   <v type="int" >      172 </v>
   <v type="int" >      173 </v>
   <v type="int" >      174 </v>
   <v type="int" >      175 </v>
   <v type="int" >      176 </v>
   <v type="int" >      177 </v>
   <v type="int" >      178 </v>
   <v type="int" >      179 </v>
   <v type="int" >      180 </v>
   <v type="int" >      181 </v>
   <v type="int" >      182 </v>
   <v type="int" >      183 </v>
   <v type="int" >      184 </v>
   <v type="int" >      185 </v>
   <v type="int" >      186 </v>
   <v type="int" >      187 </v>
   <v type="int" >      188 </v>
   <v type="int" >      189 </v>
   <v type="int" >      190 </v>
   <v type="int" >      191 </v>
   <v type="int" >      192 </v>
   <v type="int" >      193 </v>
   <v type="int" >      194 </v>
   <v type="int" >      195 </v>
   <v type="int" >      196 </v>
   <v type="int" >      197 </v>
   <v type="int" >      198 </v>
   <v type="int" >      199 </v>
   <v type="int" >      200 </v>
   <v type="int" >      201 </v>
   <v type="int" >      202 </v>
   <v type="int" >      203 </v>
   <v type="int" >      204 </v>
   <v type="int" >      205 </v>
   <v type="int" >      206 </v>
   <v type="int" >      207 </v>
   <v type="int" >      208 </v>
   <v type="int" >      209 </v>
   <v type="int" >      210 </v>
   <v type="int" >      211 </v>
   <v type="int" >      212 </v>
   <v type="int" >      213 </v>
   <v type="int" >      214 </v>
   <v type="int" >      215 </v>
   <v type="int" >      216 </v>
   <v type="int" >      217 </v>
   <v type="int" >      218 </v>
   <v type="int" >      219 </v>
   <v type="int" >      220 </v>
   <v type="int" >      221 </v>
   <v type="int" >      222 </v>
   <v type="int" >      223 </v>
   <v type="int" >      224 </v>
   <v type="int" >      225 </v>
   <v type="int" >      226 </v>
   <v type="int" >      227 </v>
   <v type="int" >      228 </v>
   <v type="int" >      229 </v>
   <v type="int" >      230 </v>
   <v type="int" >      231 </v>
   <v type="int" >      232 </v>
   <v type="int" >      233 </v>
   <v type="int" >      234 </v>
   <v type="int" >      235 </v>
   <v type="int" >      236 </v>
   <v type="int" >      237 </v>
   <v type="int" >      238 </v>
   <v type="int" >      239 </v>
   <v type="int" >      240 </v>
   <v type="int" >      241 </v>
   <v type="int" >      242 </v>
   <v type="int" >      243 </v>
   <v type="int" >      244 </v>
   <v type="int" >      245 </v>
   <v type="int" >      246 </v>
  </varray>
 </primitive_cell>
 <kpoints>
  <generation param="Gamma">
   <v type="int" name="divisions">       3        3        1 </v>
   <v name="usershift">      0.00000000       0.00000000       0.00000000 </v>
   <v name="genvec1">      0.33333333       0.00000000       0.00000000 </v>
   <v name="genvec2">      0.00000000       0.33333333       0.00000000 </v>
   <v name="genvec3">      0.00000000       0.00000000       1.00000000 </v>
   <v name="shift">      0.00000000       0.00000000       0.00000000 </v>
  </generation>
  <varray name="kpointlist" >
   <v>       0.00000000       0.00000000       0.00000000 </v>
   <v>       0.33333333       0.00000000       0.00000000 </v>
   <v>       0.33333333       0.33333333       0.00000000 </v>
   <v>       0.00000000       0.33333333       0.00000000 </v>
   <v>      -0.33333333       0.33333333       0.00000000 </v>
  </varray>
  <varray name="weights" >
   <v>       0.11111111 </v>
   <v>       0.22222222 </v>
   <v>       0.22222222 </v>
   <v>       0.22222222 </v>
   <v>       0.22222222 </v>
  </varray>
 </kpoints>
 <parameters>
  <separator name="general" >
   <i type="string" name="SYSTEM">Si_surface_6layer</i>
   <i type="logical" name="LCOMPAT"> F  </i>
  </separator>
  <separator name="electronic" >
   <i type="string" name="PREC">accura</i>
   <i name="ENMAX">    540.00000000</i>
   <i name="ENAUG">    644.87300000</i>
   <i name="EDIFF">      0.00010000</i>
   <i type="int" name="IALGO">    38</i>
   <i type="int" name="IWAVPR">    12</i>
   <i type="int" name="NBANDS">   640</i>
   <i type="int" name="NBANDSLOW">    -1</i>
   <i type="int" name="NBANDSHIGH">    -1</i>
   <i name="NELECT">    864.00000000</i>
   <i type="int" name="TURBO">     0</i>
   <i type="int" name="IRESTART">     0</i>
   <i type="int" name="NREBOOT">     0</i>
   <i type="int" name="NMIN">     0</i>
   <i name="EREF">      0.00000000</i>
   <separator name="electronic smearing" >
    <i type="int" name="ISMEAR">     0</i>
    <i name="SIGMA">      0.01000000</i>
    <i name="KSPACING">      0.50000000</i>
    <i type="logical" name="KGAMMA"> T  </i>
    <i type="logical" name="KBLOWUP"> T  </i>
   </separator>
   <separator name="electronic projectors" >
    <i type="logical" name="LREAL"> F  </i>
    <v name="ROPT">      0.00000000      0.00000000      0.00000000      0.00000000</v>
    <i type="int" name="LMAXPAW">  -100</i>
    <i type="int" name="LMAXMIX">     2</i>
    <i type="logical" name="NLSPLINE"> F  </i>
   </separator>
   <separator name="electronic startup" >
    <i type="int" name="ISTART">     1</i>
    <i type="int" name="ICHARG">     0</i>
    <i type="int" name="INIWAV">     1</i>
   </separator>
   <separator name="electronic spin" >
    <i type="int" name="ISPIN">     1</i>
    <i type="logical" name="LNONCOLLINEAR"> F  </i>
    <v name="MAGMOM">      1.00000000      1.00000000      1.00000000      1.00000000      1.00000000      1.00000000      1.00000000      1.00000000      1.00000000      1.00000000      1.00000000      1.00000000      1.00000000      1.00000000      1.00000000      1.00000000      1.00000000      1.00000000      1.00000000      1.00000000
      1.00000000      1.00000000      1.00000000      1.00000000      1.00000000      1.00000000      1.00000000      1.00000000      1.00000000      1.00000000      1.00000000      1.00000000      1.00000000      1.00000000      1.00000000      1.00000000      1.00000000      1.00000000      1.00000000      1.00000000
      1.00000000      1.00000000      1.00000000      1.00000000      1.00000000      1.00000000      1.00000000      1.00000000      1.00000000      1.00000000      1.00000000      1.00000000      1.00000000      1.00000000      1.00000000      1.00000000      1.00000000      1.00000000      1.00000000      1.00000000
      1.00000000      1.00000000      1.00000000      1.00000000      1.00000000      1.00000000      1.00000000      1.00000000      1.00000000      1.00000000      1.00000000      1.00000000      1.00000000      1.00000000      1.00000000      1.00000000      1.00000000      1.00000000      1.00000000      1.00000000
      1.00000000      1.00000000      1.00000000      1.00000000      1.00000000      1.00000000      1.00000000      1.00000000      1.00000000      1.00000000      1.00000000      1.00000000      1.00000000      1.00000000      1.00000000      1.00000000      1.00000000      1.00000000      1.00000000      1.00000000
      1.00000000      1.00000000      1.00000000      1.00000000      1.00000000      1.00000000      1.00000000      1.00000000      1.00000000      1.00000000      1.00000000      1.00000000      1.00000000      1.00000000      1.00000000      1.00000000      1.00000000      1.00000000      1.00000000      1.00000000
      1.00000000      1.00000000      1.00000000      1.00000000      1.00000000      1.00000000      1.00000000      1.00000000      1.00000000      1.00000000      1.00000000      1.00000000      1.00000000      1.00000000      1.00000000      1.00000000      1.00000000      1.00000000      1.00000000      1.00000000
      1.00000000      1.00000000      1.00000000      1.00000000      1.00000000      1.00000000      1.00000000      1.00000000      1.00000000      1.00000000      1.00000000      1.00000000      1.00000000      1.00000000      1.00000000      1.00000000      1.00000000      1.00000000      1.00000000      1.00000000
      1.00000000      1.00000000      1.00000000      1.00000000      1.00000000      1.00000000      1.00000000      1.00000000      1.00000000      1.00000000      1.00000000      1.00000000      1.00000000      1.00000000      1.00000000      1.00000000      1.00000000      1.00000000      1.00000000      1.00000000
      1.00000000      1.00000000      1.00000000      1.00000000      1.00000000      1.00000000      1.00000000      1.00000000      1.00000000      1.00000000      1.00000000      1.00000000      1.00000000      1.00000000      1.00000000      1.00000000      1.00000000      1.00000000      1.00000000      1.00000000
      1.00000000      1.00000000      1.00000000      1.00000000      1.00000000      1.00000000      1.00000000      1.00000000      1.00000000      1.00000000      1.00000000      1.00000000      1.00000000      1.00000000      1.00000000      1.00000000      1.00000000      1.00000000      1.00000000      1.00000000
      1.00000000      1.00000000      1.00000000      1.00000000      1.00000000      1.00000000      1.00000000      1.00000000      1.00000000      1.00000000      1.00000000      1.00000000      1.00000000      1.00000000      1.00000000      1.00000000      1.00000000      1.00000000      1.00000000      1.00000000
      1.00000000      1.00000000      1.00000000      1.00000000      1.00000000      1.00000000</v>
    <i name="NUPDOWN">     -1.00000000</i>
    <i type="logical" name="LSORBIT"> F  </i>
    <v name="SAXIS">      0.00000000      0.00000000      1.00000000</v>
    <i type="logical" name="LSPIRAL"> F  </i>
    <v name="QSPIRAL">      0.00000000      0.00000000      0.00000000</v>
    <i type="logical" name="LZEROZ"> F  </i>
   </separator>
   <separator name="electronic exchange-correlation" >
    <i type="logical" name="LASPH"> F  </i>
    <i type="logical" name="LMETAGGA"> F  </i>
   </separator>
   <separator name="electronic convergence" >
    <i type="int" name="NELM">    60</i>
    <i type="int" name="NELMDL">     0</i>
    <i type="int" name="NELMIN">     5</i>
    <i name="ENINI">    540.00000000</i>
    <separator name="electronic convergence detail" >
     <i type="logical" name="LDIAG"> T  </i>
     <i type="logical" name="LSUBROT"> F  </i>
     <i name="WEIMIN">      0.00100000</i>
     <i name="EBREAK">      0.00000004</i>
     <i name="DEPER">      0.30000000</i>
     <i type="int" name="NRMM">     4</i>
     <i name="TIME">      0.40000000</i>
    </separator>
   </separator>
   <separator name="electronic mixer" >
    <i name="AMIX">      0.40000000</i>
    <i name="BMIX">      1.00000000</i>
    <i name="AMIN">      0.10000000</i>
    <i name="AMIX_MAG">      1.60000000</i>
    <i name="BMIX_MAG">      1.00000000</i>
    <separator name="electronic mixer details" >
     <i type="int" name="IMIX">     4</i>
     <i type="logical" name="MIXFIRST"> F  </i>
     <i type="int" name="MAXMIX">   -45</i>
     <i name="WC">    100.00000000</i>
     <i type="int" name="INIMIX">     1</i>
     <i type="int" name="MIXPRE">     1</i>
     <i type="int" name="MREMOVE">     5</i>
    </separator>
   </separator>
   <separator name="electronic dipolcorrection" >
    <i type="logical" name="LDIPOL"> F  </i>
    <i type="logical" name="LMONO"> F  </i>
    <i type="int" name="IDIPOL">     3</i>
    <i name="EPSILON">      1.00000000</i>
    <v name="DIPOL">   -100.00000000   -100.00000000   -100.00000000</v>
    <i name="EFIELD">      0.00000000</i>
   </separator>
  </separator>
  <separator name="grids" >
   <i type="int" name="NGX">   120</i>
   <i type="int" name="NGY">   120</i>
   <i type="int" name="NGZ">   320</i>
   <i type="int" name="NGXF">   240</i>
   <i type="int" name="NGYF">   240</i>
   <i type="int" name="NGZF">   640</i>
   <i type="logical" name="ADDGRID"> F  </i>
  </separator>
  <separator name="ionic" >
   <i type="int" name="NSW">   100</i>
   <i type="int" name="IBRION">     0</i>
   <i type="int" name="MDALGO">     2</i>
   <i type="int" name="ISIF">     2</i>
   <i name="PSTRESS">      0.00000000</i>
   <i name="EDIFFG">     -0.00950000</i>
   <i type="int" name="NFREE">     0</i>
   <i name="POTIM">      1.00000000</i>
   <i name="SMASS">     -1.00000000</i>
   <i name="SCALEE">      1.00000000</i>
  </separator>
  <separator name="ionic md" >
   <i name="TEBEG">    300.00000000</i>
   <i name="TEEND">    300.00000000</i>
   <i type="int" name="NBLOCK">     1</i>
   <i type="int" name="KBLOCK">   100</i>
   <i type="int" name="NPACO">   256</i>
   <i name="APACO">     10.00000000</i>
  </separator>
  <separator name="symmetry" >
   <i type="int" name="ISYM">     0</i>
   <i name="SYMPREC">      0.00001000</i>
  </separator>
  <separator name="dos" >
   <i type="int" name="LORBIT">     0</i>
   <v name="RWIGS">     -1.00000000     -1.00000000     -1.00000000     -1.00000000</v>
   <i type="int" name="NEDOS">   301</i>
   <i name="EMIN">     10.00000000</i>
   <i name="EMAX">    -10.00000000</i>
   <i name="EFERMI">      0.00000000</i>
  </separator>
  <separator name="writing" >
   <i type="int" name="NWRITE">     1</i>
   <i type="logical" name="LWAVE"> T  </i>
   <i type="logical" name="LDOWNSAMPLE"> F  </i>
   <i type="logical" name="LCHARG"> T  </i>
   <i type="logical" name="LPARD"> F  </i>
   <i type="logical" name="LVTOT"> F  </i>
   <i type="logical" name="LVHAR"> F  </i>
   <i type="logical" name="LELF"> F  </i>
   <i type="logical" name="LOPTICS"> F  </i>
   <v name="STM">      0.00000000      0.00000000      0.00000000      0.00000000      0.00000000      0.00000000      0.00000000</v>
  </separator>
  <separator name="performance" >
   <i type="int" name="NPAR">     8</i>
   <i type="int" name="NSIM">     4</i>
   <i type="int" name="NBLK">    -1</i>
   <i type="logical" name="LPLANE"> T  </i>
   <i type="logical" name="LSCALAPACK"> T  </i>
   <i type="logical" name="LSCAAWARE"> F  </i>
   <i type="logical" name="LSCALU"> F  </i>
   <i type="logical" name="LASYNC"> F  </i>
   <i type="logical" name="LORBITALREAL"> F  </i>
  </separator>
  <separator name="miscellaneous" >
   <i type="int" name="IDIOT">     3</i>
   <i type="int" name="PHON_NSTRUCT">    -1</i>
   <i type="logical" name="LMUSIC"> F  </i>
   <v name="POMASS">     12.01100000      1.00000000      1.00000000     28.08500000</v>
   <v name="DARWINR">      0.00000000      0.00000000      0.00000000      0.00000000</v>
   <v name="DARWINV">      1.00000000      1.00000000      1.00000000      1.00000000</v>
   <i type="logical" name="LCORR"> T  </i>
  </separator>
  <i type="logical" name="GGA_COMPAT"> T  </i>
  <i type="logical" name="LBERRY"> F  </i>
  <i type="int" name="ICORELEVEL">     0</i>
  <i type="logical" name="LDAU"> F  </i>
  <i type="int" name="I_CONSTRAINED_M">     0</i>
  <separator name="electronic exchange-correlation" >
   <i type="string" name="GGA">--</i>
   <i type="int" name="VOSKOWN">     0</i>
   <i type="logical" name="LHFCALC"> F  </i>
   <i type="string" name="PRECFOCK"></i>
   <i type="logical" name="LSYMGRAD"> F  </i>
   <i type="logical" name="LHFONE"> F  </i>
   <i type="logical" name="LRHFCALC"> F  </i>
   <i type="logical" name="LTHOMAS"> F  </i>
   <i type="logical" name="LMODELHF"> F  </i>
   <i type="logical" name="LFOCKACE"> F  </i>
   <i name="ENCUT4O">     -1.00000000</i>
   <i type="int" name="EXXOEP">     0</i>
   <i type="int" name="FOURORBIT">     0</i>
   <i name="AEXX">      0.00000000</i>
   <i name="HFALPHA">      0.00000000</i>
   <i name="MCALPHA">      0.00000000</i>
   <i name="ALDAX">      1.00000000</i>
   <i name="AGGAX">      1.00000000</i>
   <i name="ALDAC">      1.00000000</i>
   <i name="AGGAC">      1.00000000</i>
   <i type="int" name="NKREDX">     1</i>
   <i type="int" name="NKREDY">     1</i>
   <i type="int" name="NKREDZ">     1</i>
   <i type="logical" name="SHIFTRED"> F  </i>
   <i type="logical" name="ODDONLY"> F  </i>
   <i type="logical" name="EVENONLY"> F  </i>
   <i type="int" name="LMAXFOCK">     0</i>
   <i type="int" name="NMAXFOCKAE">     0</i>
   <i type="logical" name="LFOCKAEDFT"> F  </i>
   <i name="HFSCREEN">      0.00000000</i>
   <i name="HFSCREENC">      0.00000000</i>
   <i type="int" name="NBANDSGWLOW">     0</i>
  </separator>
  <separator name="vdW DFT" >
   <i type="logical" name="LUSE_VDW"> F  </i>
   <i name="Zab_VDW">     -0.84910000</i>
   <i name="PARAM1">      0.12340000</i>
   <i name="PARAM2">      1.00000000</i>
   <i name="PARAM3">      0.00000000</i>
  </separator>
  <separator name="model GW" >
   <i type="int" name="MODEL_GW">     0</i>
   <i name="MODEL_EPS0">     20.63739797</i>
   <i name="MODEL_ALPHA">      1.00000000</i>
  </separator>
  <separator name="linear response parameters" >
   <i type="logical" name="LEPSILON"> F  </i>
   <i type="logical" name="LRPA"> F  </i>
   <i type="logical" name="LNABLA"> F  </i>
   <i type="logical" name="LVEL"> F  </i>
   <i name="CSHIFT">      0.10000000</i>
   <i name="OMEGAMAX">     -1.00000000</i>
   <i name="DEG_THRESHOLD">      0.00200000</i>
   <i name="RTIME">     -0.10000000</i>
   <i name="WPLASMAI">      0.00000000</i>
   <v name="DFIELD">      0.00000000      0.00000000      0.00000000</v>
   <v name="WPLASMA">      0.00000000      0.00000000      0.00000000      0.00000000      0.00000000      0.00000000      0.00000000      0.00000000      0.00000000</v>
  </separator>
  <separator name="orbital magnetization" >
   <i type="logical" name="NUCIND"> F  </i>
   <v name="MAGPOS">      0.00000000      0.00000000      0.00000000</v>
   <i type="logical" name="LNICSALL"> T  </i>
   <i type="logical" name="ORBITALMAG"> F  </i>
   <i type="logical" name="LMAGBLOCH"> F  </i>
   <i type="logical" name="LCHIMAG"> F  </i>
   <i type="logical" name="LGAUGE"> T  </i>
   <i type="int" name="MAGATOM">     0</i>
   <v name="MAGDIPOL">      0.00000000      0.00000000      0.00000000</v>
   <v name="AVECCONST">      0.00000000      0.00000000      0.00000000</v>
  </separator>
  <separator name="response functions" >
   <i type="logical" name="LFINITE_TEMPERATURE"> F  </i>
   <i type="logical" name="LADDER"> F  </i>
   <i type="logical" name="LRPAFORCE"> F  </i>
   <i type="logical" name="LFXC"> F  </i>
   <i type="logical" name="LHARTREE"> T  </i>
   <i type="int" name="IBSE">     0</i>
   <v type="int" name="KPOINT">    -1     0     0     0</v>
   <i type="logical" name="LTCTC"> F  </i>
   <i type="logical" name="LTCTE"> F  </i>
   <i type="logical" name="LTETE"> F  </i>
   <i type="logical" name="LTRIPLET"> F  </i>
   <i type="logical" name="LFXCEPS"> F  </i>
   <i type="logical" name="LFXHEG"> F  </i>
   <i type="int" name="NATURALO">     2</i>
   <i type="logical" name="LHOLEGF"> F  </i>
   <i type="logical" name="L2ORDER"> F  </i>
   <i type="logical" name="LDMP1"> F  </i>
   <i type="logical" name="LMP2LT"> F  </i>
   <i type="logical" name="LSMP2LT"> F  </i>
   <i type="logical" name="LGWLF"> F  </i>
   <i name="ENCUTGW">     -2.00000000</i>
   <i name="ENCUTGWSOFT">     -2.00000000</i>
   <i name="ENCUTLF">     -1.00000000</i>
   <i type="logical" name="LESF_SPLINES"> F  </i>
   <i type="int" name="LMAXMP2">    -1</i>
   <i name="SCISSOR">      0.00000000</i>
   <i type="int" name="NOMEGA">     0</i>
   <i type="int" name="NOMEGAR">     0</i>
   <i type="int" name="NBANDSGW">    -1</i>
   <i type="int" name="NBANDSO">    -1</i>
   <i type="int" name="NBANDSV">    -1</i>
   <i type="int" name="NELMGW">     1</i>
   <i type="int" name="NELMHF">     1</i>
   <i type="int" name="DIM">     3</i>
   <i type="int" name="IESPILON">     4</i>
   <i type="int" name="ANTIRES">     0</i>
   <i name="OMEGAMAX">    -30.00000000</i>
   <i name="OMEGAMIN">    -30.00000000</i>
   <i name="OMEGATL">   -200.00000000</i>
   <i type="int" name="OMEGAGRID">     0</i>
   <i name="CSHIFT">     -0.10000000</i>
   <i type="logical" name="LSELFENERGY"> F  </i>
   <i type="logical" name="LSPECTRAL"> F  </i>
   <i type="logical" name="LSPECTRALGW"> F  </i>
   <i type="logical" name="LSINGLES"> F  </i>
   <i type="logical" name="LFERMIGW"> F  </i>
   <i type="logical" name="ODDONLYGW"> F  </i>
   <i type="logical" name="EVENONLYGW"> F  </i>
   <i type="int" name="NKREDLFX">     1</i>
   <i type="int" name="NKREDLFY">     1</i>
   <i type="int" name="NKREDLFZ">     1</i>
   <i type="int" name="MAXMEM">  2800</i>
   <i type="int" name="TELESCOPE">     0</i>
   <i type="int" name="NTAUPAR">    -1</i>
   <i type="int" name="NOMEGAPAR">    -1</i>
   <i name="DAMP_NEWTON">      0.80000001</i>
   <i name="LAMBDA">      1.00000000</i>
  </separator>
  <separator name="External order field" >
   <i name="OFIELD_KAPPA">      0.00000000</i>
   <v name="OFIELD_K">      0.00000000      0.00000000      0.00000000</v>
   <i name="OFIELD_Q6_NEAR">      0.00000000</i>
   <i name="OFIELD_Q6_FAR">      0.00000000</i>
   <i name="OFIELD_A">      0.00000000</i>
  </separator>
  <separator name="optional k-points parameters" >
   <i type="int" name="KPOINTS_OPT_MODE">     1</i>
   <i type="logical" name="LKPOINTS_OPT"> F  </i>
  </separator>
 </parameters>
 <atominfo>
  <atoms>     246 </atoms>
  <types>       4 </types>
  <array name="atoms" >
   <dimension dim="1">ion</dimension>
   <field type="string">element</field>
   <field type="int">atomtype</field>
   <set>
    <rc><c>C </c><c>   1</c></rc>
    <rc><c>C </c><c>   1</c></rc>
    <rc><c>C </c><c>   1</c></rc>
    <rc><c>C </c><c>   1</c></rc>
    <rc><c>C </c><c>   1</c></rc>
    <rc><c>C </c><c>   1</c></rc>
    <rc><c>C </c><c>   1</c></rc>
    <rc><c>C </c><c>   1</c></rc>
    <rc><c>C </c><c>   1</c></rc>
    <rc><c>C </c><c>   1</c></rc>
    <rc><c>C </c><c>   1</c></rc>
    <rc><c>C </c><c>   1</c></rc>
    <rc><c>C </c><c>   1</c></rc>
    <rc><c>C </c><c>   1</c></rc>
    <rc><c>H </c><c>   2</c></rc>
    <rc><c>H </c><c>   2</c></rc>
    <rc><c>H </c><c>   2</c></rc>
    <rc><c>H </c><c>   2</c></rc>
    <rc><c>H </c><c>   2</c></rc>
    <rc><c>H </c><c>   2</c></rc>
    <rc><c>H </c><c>   2</c></rc>
    <rc><c>H </c><c>   2</c></rc>
    <rc><c>H </c><c>   2</c></rc>
    <rc><c>H </c><c>   3</c></rc>
    <rc><c>H </c><c>   3</c></rc>
    <rc><c>H </c><c>   3</c></rc>
    <rc><c>H </c><c>   3</c></rc>
    <rc><c>H </c><c>   3</c></rc>
    <rc><c>H </c><c>   3</c></rc>
    <rc><c>H </c><c>   3</c></rc>
    <rc><c>H </c><c>   3</c></rc>
    <rc><c>H </c><c>   3</c></rc>
    <rc><c>H </c><c>   3</c></rc>
    <rc><c>H </c><c>   3</c></rc>
    <rc><c>H </c><c>   3</c></rc>
    <rc><c>H </c><c>   3</c></rc>
    <rc><c>H </c><c>   3</c></rc>
    <rc><c>H </c><c>   3</c></rc>
    <rc><c>H </c><c>   3</c></rc>
    <rc><c>H </c><c>   3</c></rc>
    <rc><c>H </c><c>   3</c></rc>
    <rc><c>H </c><c>   3</c></rc>
    <rc><c>H </c><c>   3</c></rc>
    <rc><c>H </c><c>   3</c></rc>
    <rc><c>H </c><c>   3</c></rc>
    <rc><c>H </c><c>   3</c></rc>
    <rc><c>H </c><c>   3</c></rc>
    <rc><c>H </c><c>   3</c></rc>
    <rc><c>H </c><c>   3</c></rc>
    <rc><c>H </c><c>   3</c></rc>
    <rc><c>H </c><c>   3</c></rc>
    <rc><c>H </c><c>   3</c></rc>
    <rc><c>H </c><c>   3</c></rc>
    <rc><c>H </c><c>   3</c></rc>
    <rc><c>Si</c><c>   4</c></rc>
    <rc><c>Si</c><c>   4</c></rc>
    <rc><c>Si</c><c>   4</c></rc>
    <rc><c>Si</c><c>   4</c></rc>
    <rc><c>Si</c><c>   4</c></rc>
    <rc><c>Si</c><c>   4</c></rc>
    <rc><c>Si</c><c>   4</c></rc>
    <rc><c>Si</c><c>   4</c></rc>
    <rc><c>Si</c><c>   4</c></rc>
    <rc><c>Si</c><c>   4</c></rc>
    <rc><c>Si</c><c>   4</c></rc>
    <rc><c>Si</c><c>   4</c></rc>
    <rc><c>Si</c><c>   4</c></rc>
    <rc><c>Si</c><c>   4</c></rc>
    <rc><c>Si</c><c>   4</c></rc>
    <rc><c>Si</c><c>   4</c></rc>
    <rc><c>Si</c><c>   4</c></rc>
    <rc><c>Si</c><c>   4</c></rc>
    <rc><c>Si</c><c>   4</c></rc>
    <rc><c>Si</c><c>   4</c></rc>
    <rc><c>Si</c><c>   4</c></rc>
    <rc><c>Si</c><c>   4</c></rc>
    <rc><c>Si</c><c>   4</c></rc>
    <rc><c>Si</c><c>   4</c></rc>
    <rc><c>Si</c><c>   4</c></rc>
    <rc><c>Si</c><c>   4</c></rc>
    <rc><c>Si</c><c>   4</c></rc>
    <rc><c>Si</c><c>   4</c></rc>
    <rc><c>Si</c><c>   4</c></rc>
    <rc><c>Si</c><c>   4</c></rc>
    <rc><c>Si</c><c>   4</c></rc>
    <rc><c>Si</c><c>   4</c></rc>
    <rc><c>Si</c><c>   4</c></rc>
    <rc><c>Si</c><c>   4</c></rc>
    <rc><c>Si</c><c>   4</c></rc>
    <rc><c>Si</c><c>   4</c></rc>
    <rc><c>Si</c><c>   4</c></rc>
    <rc><c>Si</c><c>   4</c></rc>
    <rc><c>Si</c><c>   4</c></rc>
    <rc><c>Si</c><c>   4</c></rc>
    <rc><c>Si</c><c>   4</c></rc>
    <rc><c>Si</c><c>   4</c></rc>
    <rc><c>Si</c><c>   4</c></rc>
    <rc><c>Si</c><c>   4</c></rc>
    <rc><c>Si</c><c>   4</c></rc>
    <rc><c>Si</c><c>   4</c></rc>
    <rc><c>Si</c><c>   4</c></rc>
    <rc><c>Si</c><c>   4</c></rc>
    <rc><c>Si</c><c>   4</c></rc>
    <rc><c>Si</c><c>   4</c></rc>
    <rc><c>Si</c><c>   4</c></rc>
    <rc><c>Si</c><c>   4</c></rc>
    <rc><c>Si</c><c>   4</c></rc>
    <rc><c>Si</c><c>   4</c></rc>
    <rc><c>Si</c><c>   4</c></rc>
    <rc><c>Si</c><c>   4</c></rc>
    <rc><c>Si</c><c>   4</c></rc>
    <rc><c>Si</c><c>   4</c></rc>
    <rc><c>Si</c><c>   4</c></rc>
    <rc><c>Si</c><c>   4</c></rc>
    <rc><c>Si</c><c>   4</c></rc>
    <rc><c>Si</c><c>   4</c></rc>
    <rc><c>Si</c><c>   4</c></rc>
    <rc><c>Si</c><c>   4</c></rc>
    <rc><c>Si</c><c>   4</c></rc>
    <rc><c>Si</c><c>   4</c></rc>
    <rc><c>Si</c><c>   4</c></rc>
    <rc><c>Si</c><c>   4</c></rc>
    <rc><c>Si</c><c>   4</c></rc>
    <rc><c>Si</c><c>   4</c></rc>
    <rc><c>Si</c><c>   4</c></rc>
    <rc><c>Si</c><c>   4</c></rc>
    <rc><c>Si</c><c>   4</c></rc>
    <rc><c>Si</c><c>   4</c></rc>
    <rc><c>Si</c><c>   4</c></rc>
    <rc><c>Si</c><c>   4</c></rc>
    <rc><c>Si</c><c>   4</c></rc>
    <rc><c>Si</c><c>   4</c></rc>
    <rc><c>Si</c><c>   4</c></rc>
    <rc><c>Si</c><c>   4</c></rc>
    <rc><c>Si</c><c>   4</c></rc>
    <rc><c>Si</c><c>   4</c></rc>
    <rc><c>Si</c><c>   4</c></rc>
    <rc><c>Si</c><c>   4</c></rc>
    <rc><c>Si</c><c>   4</c></rc>
    <rc><c>Si</c><c>   4</c></rc>
    <rc><c>Si</c><c>   4</c></rc>
    <rc><c>Si</c><c>   4</c></rc>
    <rc><c>Si</c><c>   4</c></rc>
    <rc><c>Si</c><c>   4</c></rc>
    <rc><c>Si</c><c>   4</c></rc>
    <rc><c>Si</c><c>   4</c></rc>
    <rc><c>Si</c><c>   4</c></rc>
    <rc><c>Si</c><c>   4</c></rc>
    <rc><c>Si</c><c>   4</c></rc>
    <rc><c>Si</c><c>   4</c></rc>
    <rc><c>Si</c><c>   4</c></rc>
    <rc><c>Si</c><c>   4</c></rc>
    <rc><c>Si</c><c>   4</c></rc>
    <rc><c>Si</c><c>   4</c></rc>
    <rc><c>Si</c><c>   4</c></rc>
    <rc><c>Si</c><c>   4</c></rc>
    <rc><c>Si</c><c>   4</c></rc>
    <rc><c>Si</c><c>   4</c></rc>
    <rc><c>Si</c><c>   4</c></rc>
    <rc><c>Si</c><c>   4</c></rc>
    <rc><c>Si</c><c>   4</c></rc>
    <rc><c>Si</c><c>   4</c></rc>
    <rc><c>Si</c><c>   4</c></rc>
    <rc><c>Si</c><c>   4</c></rc>
    <rc><c>Si</c><c>   4</c></rc>
    <rc><c>Si</c><c>   4</c></rc>
    <rc><c>Si</c><c>   4</c></rc>
    <rc><c>Si</c><c>   4</c></rc>
    <rc><c>Si</c><c>   4</c></rc>
    <rc><c>Si</c><c>   4</c></rc>
    <rc><c>Si</c><c>   4</c></rc>
    <rc><c>Si</c><c>   4</c></rc>
    <rc><c>Si</c><c>   4</c></rc>
    <rc><c>Si</c><c>   4</c></rc>
    <rc><c>Si</c><c>   4</c></rc>
    <rc><c>Si</c><c>   4</c></rc>
    <rc><c>Si</c><c>   4</c></rc>
    <rc><c>Si</c><c>   4</c></rc>
    <rc><c>Si</c><c>   4</c></rc>
    <rc><c>Si</c><c>   4</c></rc>
    <rc><c>Si</c><c>   4</c></rc>
    <rc><c>Si</c><c>   4</c></rc>
    <rc><c>Si</c><c>   4</c></rc>
    <rc><c>Si</c><c>   4</c></rc>
    <rc><c>Si</c><c>   4</c></rc>
    <rc><c>Si</c><c>   4</c></rc>
    <rc><c>Si</c><c>   4</c></rc>
    <rc><c>Si</c><c>   4</c></rc>
    <rc><c>Si</c><c>   4</c></rc>
    <rc><c>Si</c><c>   4</c></rc>
    <rc><c>Si</c><c>   4</c></rc>
    <rc><c>Si</c><c>   4</c></rc>
    <rc><c>Si</c><c>   4</c></rc>
    <rc><c>Si</c><c>   4</c></rc>
    <rc><c>Si</c><c>   4</c></rc>
    <rc><c>Si</c><c>   4</c></rc>
    <rc><c>Si</c><c>   4</c></rc>
    <rc><c>Si</c><c>   4</c></rc>
    <rc><c>Si</c><c>   4</c></rc>
    <rc><c>Si</c><c>   4</c></rc>
    <rc><c>Si</c><c>   4</c></rc>
    <rc><c>Si</c><c>   4</c></rc>
    <rc><c>Si</c><c>   4</c></rc>
    <rc><c>Si</c><c>   4</c></rc>
    <rc><c>Si</c><c>   4</c></rc>
    <rc><c>Si</c><c>   4</c></rc>
    <rc><c>Si</c><c>   4</c></rc>
    <rc><c>Si</c><c>   4</c></rc>
    <rc><c>Si</c><c>   4</c></rc>
    <rc><c>Si</c><c>   4</c></rc>
    <rc><c>Si</c><c>   4</c></rc>
    <rc><c>Si</c><c>   4</c></rc>
    <rc><c>Si</c><c>   4</c></rc>
    <rc><c>Si</c><c>   4</c></rc>
    <rc><c>Si</c><c>   4</c></rc>
    <rc><c>Si</c><c>   4</c></rc>
    <rc><c>Si</c><c>   4</c></rc>
    <rc><c>Si</c><c>   4</c></rc>
    <rc><c>Si</c><c>   4</c></rc>
    <rc><c>Si</c><c>   4</c></rc>
    <rc><c>Si</c><c>   4</c></rc>
    <rc><c>Si</c><c>   4</c></rc>
    <rc><c>Si</c><c>   4</c></rc>
    <rc><c>Si</c><c>   4</c></rc>
    <rc><c>Si</c><c>   4</c></rc>
    <rc><c>Si</c><c>   4</c></rc>
    <rc><c>Si</c><c>   4</c></rc>
    <rc><c>Si</c><c>   4</c></rc>
    <rc><c>Si</c><c>   4</c></rc>
    <rc><c>Si</c><c>   4</c></rc>
    <rc><c>Si</c><c>   4</c></rc>
    <rc><c>Si</c><c>   4</c></rc>
    <rc><c>Si</c><c>   4</c></rc>
    <rc><c>Si</c><c>   4</c></rc>
    <rc><c>Si</c><c>   4</c></rc>
    <rc><c>Si</c><c>   4</c></rc>
    <rc><c>Si</c><c>   4</c></rc>
    <rc><c>Si</c><c>   4</c></rc>
    <rc><c>Si</c><c>   4</c></rc>
    <rc><c>Si</c><c>   4</c></rc>
    <rc><c>Si</c><c>   4</c></rc>
    <rc><c>Si</c><c>   4</c></rc>
    <rc><c>Si</c><c>   4</c></rc>
    <rc><c>Si</c><c>   4</c></rc>
    <rc><c>Si</c><c>   4</c></rc>
    <rc><c>Si</c><c>   4</c></rc>
   </set>
  </array>
  <array name="atomtypes" >
   <dimension dim="1">type</dimension>
   <field type="int">atomspertype</field>
   <field type="string">element</field>
   <field>mass</field>
   <field>valence</field>
   <field type="string">pseudopotential</field>
   <set>
    <rc><c>  14</c><c>C </c><c>     12.01100000</c><c>      4.00000000</c><c>  PAW_PBE C_GW 28Sep2005                </c></rc>
    <rc><c>   9</c><c>H </c><c>      1.00000000</c><c>      1.00000000</c><c>  PAW_PBE H_GW 21Apr2008                </c></rc>
    <rc><c>  31</c><c>H </c><c>      1.00000000</c><c>      1.00000000</c><c>  PAW_PBE H_GW 21Apr2008                </c></rc>
    <rc><c> 192</c><c>Si</c><c>     28.08500000</c><c>      4.00000000</c><c>  PAW_PBE Si_GW 04May2012               </c></rc>
   </set>
  </array>
 </atominfo>
 <structure name="initialpos" >
  <crystal>
   <varray name="basis" >
    <v>      15.33298779       0.00000000       0.00000000 </v>
    <v>       7.66649389      13.27875694       0.00000000 </v>
    <v>       0.00000000       0.00000000      41.55799484 </v>
   </varray>
   <i name="volume">   8461.33316923 </i>
   <varray name="rec_basis" >
    <v>       0.06521886      -0.03765413       0.00000000 </v>
    <v>       0.00000000       0.07530825       0.00000000 </v>
    <v>       0.00000000       0.00000000       0.02406276 </v>
   </varray>
  </crystal>
  <varray name="positions" >
   <v>       0.62356774       0.42725863       0.57340898 </v>
   <v>       0.55887199       0.39469334       0.56385946 </v>
   <v>       0.62730757       0.50371117       0.55531024 </v>
   <v>       0.51384659       0.41626159       0.53144167 </v>
   <v>       0.52191690       0.49087663       0.51155236 </v>
   <v>       0.57290888       0.54140238       0.52496371 </v>
   <v>       0.68314750       0.55196186       0.56635721 </v>
   <v>       0.66928976       0.63918906       0.55205977 </v>
   <v>       0.60400018       0.68268650       0.52545902 </v>
   <v>       0.56097896       0.63460032       0.51036700 </v>
   <v>       0.54765204       0.32962663       0.58515287 </v>
   <v>       0.49015367       0.28849011       0.57744341 </v>
   <v>       0.44224308       0.31032601       0.54737255 </v>
   <v>       0.44959172       0.37429269       0.52440023 </v>
   <v>       0.58561338       0.31472762       0.60843432 </v>
   <v>       0.47448885       0.24413543       0.59538302 </v>
   <v>       0.39096625       0.28080265       0.54231392 </v>
   <v>       0.42128360       0.38057401       0.49971486 </v>
   <v>       0.67625959       0.39391145       0.59370077 </v>
   <v>       0.50947112       0.66585127       0.48965573 </v>
   <v>       0.59568258       0.75476373       0.51712835 </v>
   <v>       0.73486540       0.51837640       0.58619857 </v>
   <v>       0.71001940       0.67473626       0.56306327 </v>
   <v>       0.00904117       0.99183180       0.01960847 </v>
   <v>       0.50378741       0.99361682       0.02305282 </v>
   <v>       0.00191361       0.51363347       0.02171836 </v>
   <v>       0.49113110       0.49060684       0.02117123 </v>
   <v>       0.23970527       0.00075414       0.01719306 </v>
   <v>       0.76414123       0.00163301       0.02434474 </v>
   <v>       0.24575028       0.48574514       0.02006938 </v>
   <v>       0.74662853       0.51414390       0.02218570 </v>
   <v>       0.99532904       0.25314777       0.02277605 </v>
   <v>       0.50074381       0.25474580       0.01915039 </v>
   <v>       0.01869165       0.73861465       0.01963014 </v>
   <v>       0.49055760       0.76072725       0.01893267 </v>
   <v>       0.25233067       0.26080193       0.02073040 </v>
   <v>       0.74293987       0.26236098       0.02116347 </v>
   <v>       0.23227930       0.76670609       0.02245753 </v>
   <v>       0.74216643       0.75347019       0.02114691 </v>
   <v>       0.00240275       0.99436762       0.49074347 </v>
   <v>       0.49870860       0.98895685       0.48752078 </v>
   <v>       0.00196359       0.50356651       0.48842660 </v>
   <v>       0.26029564       0.00149490       0.48818326 </v>
   <v>       0.75316710       0.99955164       0.48903515 </v>
   <v>       0.26464128       0.50227763       0.48868435 </v>
   <v>       0.75601657       0.50491397       0.49362235 </v>
   <v>       0.98657308       0.24268318       0.48660475 </v>
   <v>       0.52555009       0.20860452       0.48962399 </v>
   <v>       0.99200205       0.75984832       0.49062945 </v>
   <v>       0.47659662       0.80146525       0.48218336 </v>
   <v>       0.24267220       0.25587671       0.48933883 </v>
   <v>       0.74091147       0.26688307       0.48800183 </v>
   <v>       0.26193988       0.75871626       0.49053005 </v>
   <v>       0.73769252       0.75329215       0.49007311 </v>
   <v>       0.00097282       0.00381741       0.05539400 </v>
   <v>       0.50380952       0.99982848       0.05932609 </v>
   <v>       0.99356303       0.50654174       0.05751107 </v>
   <v>       0.49917929       0.49720585       0.05700874 </v>
   <v>       0.24270007       0.00344850       0.05552058 </v>
   <v>       0.75595549       0.99644831       0.05860343 </v>
   <v>       0.24478370       0.49498483       0.05635714 </v>
   <v>       0.73948588       0.50548404       0.05689706 </v>
   <v>       0.99355590       0.25578915       0.05896973 </v>
   <v>       0.50377974       0.24758782       0.05506568 </v>
   <v>       0.00644613       0.74880005       0.05593040 </v>
   <v>       0.49599690       0.75350485       0.05547498 </v>
   <v>       0.24649746       0.25167545       0.05617726 </v>
   <v>       0.74347430       0.25612367       0.05715865 </v>
   <v>       0.24407317       0.75309752       0.05890569 </v>
   <v>       0.74655539       0.75157168       0.05733317 </v>
   <v>       0.83916337       0.82988990       0.07224861 </v>
   <v>       0.33181387       0.83175212       0.07393706 </v>
   <v>       0.83022715       0.33874970       0.07502111 </v>
   <v>       0.33517972       0.33200063       0.07545815 </v>
   <v>       0.07727858       0.84231671       0.07713761 </v>
   <v>       0.58308675       0.83481250       0.07699040 </v>
   <v>       0.08130646       0.33248753       0.07576005 </v>
   <v>       0.57479419       0.33326756       0.07497365 </v>
   <v>       0.83892926       0.07872882       0.07491852 </v>
   <v>       0.33014670       0.08103199       0.07422279 </v>
   <v>       0.82636735       0.58203142       0.07394958 </v>
   <v>       0.33501225       0.58173138       0.07353263 </v>
   <v>       0.08019664       0.08864531       0.07486948 </v>
   <v>       0.58402186       0.08607015       0.07615186 </v>
   <v>       0.08081283       0.58679114       0.07623886 </v>
   <v>       0.57843486       0.58506069       0.07592905 </v>
   <v>       0.83165332       0.83574493       0.12980096 </v>
   <v>       0.33341383       0.83644388       0.13092128 </v>
   <v>       0.83578710       0.33065753       0.13229823 </v>
   <v>       0.33511170       0.33782871       0.13127907 </v>
   <v>       0.08840911       0.83196247       0.13354646 </v>
   <v>       0.57935085       0.82570357       0.13251090 </v>
   <v>       0.07797246       0.33480816       0.13206770 </v>
   <v>       0.58817569       0.32677798       0.13109845 </v>
   <v>       0.83207598       0.07702870       0.13053090 </v>
   <v>       0.32580620       0.09693989       0.13142272 </v>
   <v>       0.83367139       0.58678417       0.12958411 </v>
   <v>       0.33572785       0.58706423       0.13088781 </v>
   <v>       0.08232760       0.08776341       0.13146344 </v>
   <v>       0.57863726       0.08438904       0.13222866 </v>
   <v>       0.08788950       0.58386391       0.13260642 </v>
   <v>       0.58792698       0.57920946       0.13205075 </v>
   <v>       0.66938327       0.65925163       0.15081442 </v>
   <v>       0.17621483       0.66273454       0.15104523 </v>
   <v>       0.66501879       0.16075027       0.15067047 </v>
   <v>       0.16672420       0.17031021       0.15055450 </v>
   <v>       0.90933002       0.67738100       0.15040372 </v>
   <v>       0.41745625       0.67101980       0.14970503 </v>
   <v>       0.91696836       0.16002893       0.15138328 </v>
   <v>       0.41470807       0.17361503       0.15030450 </v>
   <v>       0.66449301       0.91171522       0.14953450 </v>
   <v>       0.16773593       0.91625277       0.15156573 </v>
   <v>       0.67163677       0.41319044       0.14997125 </v>
   <v>       0.16384324       0.41898053       0.15060441 </v>
   <v>       0.91966086       0.91450362       0.15091631 </v>
   <v>       0.41351616       0.92327441       0.15124824 </v>
   <v>       0.91372946       0.41947805       0.15087894 </v>
   <v>       0.42018550       0.41769446       0.14934503 </v>
   <v>       0.66691256       0.66650248       0.20705400 </v>
   <v>       0.16691388       0.66649014       0.20705898 </v>
   <v>       0.66690344       0.16650572       0.20706598 </v>
   <v>       0.16684061       0.16660814       0.20708179 </v>
   <v>       0.91692531       0.66649854       0.20705917 </v>
   <v>       0.41692519       0.66647869       0.20706536 </v>
   <v>       0.91692513       0.16650243       0.20707472 </v>
   <v>       0.41696414       0.16651435       0.20706744 </v>
   <v>       0.66691798       0.91648233       0.20704252 </v>
   <v>       0.16694951       0.91644073       0.20704633 </v>
   <v>       0.66691595       0.41648963       0.20705459 </v>
   <v>       0.16692059       0.41647589       0.20705572 </v>
   <v>       0.91694874       0.91646326       0.20705239 </v>
   <v>       0.41701031       0.91640425       0.20704821 </v>
   <v>       0.91693836       0.41649175       0.20706075 </v>
   <v>       0.41692036       0.41647944       0.20706344 </v>
   <v>       0.50027961       0.49979386       0.22588077 </v>
   <v>       0.00028667       0.49982324       0.22588116 </v>
   <v>       0.50028664       0.99980050       0.22585523 </v>
   <v>       0.00032078       0.99976605       0.22586109 </v>
   <v>       0.75028151       0.49981755       0.22585414 </v>
   <v>       0.25025454       0.49979892       0.22586794 </v>
   <v>       0.75028825       0.99977207       0.22584361 </v>
   <v>       0.25032210       0.99981099       0.22577891 </v>
   <v>       0.50031888       0.74973106       0.22591361 </v>
   <v>       0.00028389       0.74979836       0.22589213 </v>
   <v>       0.50029421       0.24984773       0.22593303 </v>
   <v>       0.00016690       0.24989246       0.22594903 </v>
   <v>       0.75026935       0.74982309       0.22586657 </v>
   <v>       0.25028658       0.74977243       0.22589330 </v>
   <v>       0.75025457       0.24982803       0.22588788 </v>
   <v>       0.25034884       0.24982284       0.22589789 </v>
   <v>       0.50049311       0.49963021       0.28230625 </v>
   <v>       0.00050731       0.49968964       0.28230852 </v>
   <v>       0.50051337       0.99962586       0.28226966 </v>
   <v>       0.00059072       0.99956340       0.28227770 </v>
   <v>       0.75046229       0.49970725       0.28226706 </v>
   <v>       0.25044429       0.49965557       0.28228563 </v>
   <v>       0.75051129       0.99957675       0.28225109 </v>
   <v>       0.25060219       0.99960679       0.28215271 </v>
   <v>       0.50056702       0.74950278       0.28235546 </v>
   <v>       0.00050130       0.74963838       0.28232342 </v>
   <v>       0.50053847       0.24974354       0.28238246 </v>
   <v>       0.00022542       0.24985044       0.28240287 </v>
   <v>       0.75046211       0.74969256       0.28228703 </v>
   <v>       0.25051790       0.74957991       0.28232458 </v>
   <v>       0.75041085       0.24970731       0.28231668 </v>
   <v>       0.25066370       0.24970363       0.28232852 </v>
   <v>       0.33391163       0.33313787       0.30122888 </v>
   <v>       0.83340478       0.33325410       0.30123815 </v>
   <v>       0.33380580       0.83306384       0.30105916 </v>
   <v>       0.83384037       0.83295310       0.30113372 </v>
   <v>       0.58387220       0.33310598       0.30124068 </v>
   <v>       0.08398665       0.33295631       0.30108732 </v>
   <v>       0.58382905       0.83298177       0.30112001 </v>
   <v>       0.08388577       0.83291119       0.30115694 </v>
   <v>       0.33384538       0.58284026       0.30112976 </v>
   <v>       0.83381855       0.58302647       0.30109686 </v>
   <v>       0.33384517       0.08289958       0.30104592 </v>
   <v>       0.83388197       0.08288339       0.30102268 </v>
   <v>       0.58398402       0.58273447       0.30118588 </v>
   <v>       0.08386202       0.58297580       0.30116987 </v>
   <v>       0.58390039       0.08290785       0.30108312 </v>
   <v>       0.08406826       0.08289581       0.30098030 </v>
   <v>       0.33293565       0.34017079       0.36146318 </v>
   <v>       0.82974589       0.34222921       0.35849284 </v>
   <v>       0.33768296       0.82977687       0.35695757 </v>
   <v>       0.83401858       0.83862680       0.35892258 </v>
   <v>       0.58579598       0.33121573       0.35750973 </v>
   <v>       0.08215042       0.34045510       0.35773327 </v>
   <v>       0.58234761       0.84110729       0.35677561 </v>
   <v>       0.08647718       0.83735333       0.35784426 </v>
   <v>       0.33129619       0.58355984       0.35852145 </v>
   <v>       0.83033760       0.59119488       0.35824583 </v>
   <v>       0.32723440       0.09389845       0.35598982 </v>
   <v>       0.83024218       0.08689472       0.35686005 </v>
   <v>       0.57414459       0.59024852       0.35756399 </v>
   <v>       0.08272599       0.58592807       0.35848810 </v>
   <v>       0.57958224       0.08761941       0.35779828 </v>
   <v>       0.07578516       0.08488444       0.36018059 </v>
   <v>       0.15429871       0.17094433       0.37759961 </v>
   <v>       0.66827173       0.16521116       0.37667500 </v>
   <v>       0.16388766       0.68007163       0.37935714 </v>
   <v>       0.66051870       0.66907843       0.37780502 </v>
   <v>       0.40973111       0.17193140       0.37840158 </v>
   <v>       0.91227280       0.17147288       0.37535971 </v>
   <v>       0.41099713       0.66571441       0.37860112 </v>
   <v>       0.91422626       0.67005888       0.37790628 </v>
   <v>       0.16297848       0.42112964       0.37994961 </v>
   <v>       0.65812386       0.42539685       0.37729438 </v>
   <v>       0.17439689       0.91557349       0.37668631 </v>
   <v>       0.66649794       0.92437082       0.37681295 </v>
   <v>       0.41841980       0.41741665       0.38014266 </v>
   <v>       0.91635399       0.42404127       0.37731422 </v>
   <v>       0.41280257       0.92937367       0.37148238 </v>
   <v>       0.92059113       0.91915368       0.37872907 </v>
   <v>       0.16243315       0.17329903       0.43355757 </v>
   <v>       0.67399658       0.16370338       0.43285198 </v>
   <v>       0.16681007       0.67424438       0.43630871 </v>
   <v>       0.66005263       0.67422471       0.43529795 </v>
   <v>       0.41942704       0.16725129       0.43572608 </v>
   <v>       0.91217488       0.16920318       0.43302871 </v>
   <v>       0.42483153       0.66264445       0.43606200 </v>
   <v>       0.91343205       0.67698297       0.43562850 </v>
   <v>       0.16975638       0.41648113       0.43693172 </v>
   <v>       0.66446925       0.41937446       0.43540784 </v>
   <v>       0.16939244       0.91212534       0.43435470 </v>
   <v>       0.66986505       0.91920742       0.43269949 </v>
   <v>       0.42123382       0.42304460       0.44135338 </v>
   <v>       0.91269717       0.42333356       0.43210341 </v>
   <v>       0.40739553       0.92770534       0.42775373 </v>
   <v>       0.91853723       0.91950791       0.43408056 </v>
   <v>       0.99671563       0.00069404       0.45462567 </v>
   <v>       0.50157557       0.99490400       0.45102765 </v>
   <v>       0.99990148       0.50304538       0.45326111 </v>
   <v>       0.50718242       0.50085654       0.46374869 </v>
   <v>       0.24826461       0.00453200       0.45221988 </v>
   <v>       0.75696591       0.00012169       0.45285196 </v>
   <v>       0.24849120       0.50715707       0.45396098 </v>
   <v>       0.75267140       0.50538501       0.45383194 </v>
   <v>       0.98852431       0.25632566       0.45070364 </v>
   <v>       0.50953710       0.23951304       0.45522289 </v>
   <v>       0.99777614       0.75948744       0.45431462 </v>
   <v>       0.48884802       0.76845054       0.44738984 </v>
   <v>       0.24797707       0.25494761       0.45317371 </v>
   <v>       0.75071673       0.25484972       0.45289254 </v>
   <v>       0.25626783       0.75113478       0.45428857 </v>
   <v>       0.74708895       0.74923005       0.45405105 </v>
  </varray>
  <varray name="selective"  type="logical" >
   <v type="logical" >  T  T  T </v>
   <v type="logical" >  T  T  T </v>
   <v type="logical" >  T  T  T </v>
   <v type="logical" >  T  T  T </v>
   <v type="logical" >  T  T  T </v>
   <v type="logical" >  T  T  T </v>
   <v type="logical" >  T  T  T </v>
   <v type="logical" >  T  T  T </v>
   <v type="logical" >  T  T  T </v>
   <v type="logical" >  T  T  T </v>
   <v type="logical" >  T  T  T </v>
   <v type="logical" >  T  T  T </v>
   <v type="logical" >  T  T  T </v>
   <v type="logical" >  T  T  T </v>
   <v type="logical" >  T  T  T </v>
   <v type="logical" >  T  T  T </v>
   <v type="logical" >  T  T  T </v>
   <v type="logical" >  T  T  T </v>
   <v type="logical" >  T  T  T </v>
   <v type="logical" >  T  T  T </v>
   <v type="logical" >  T  T  T </v>
   <v type="logical" >  T  T  T </v>
   <v type="logical" >  T  T  T </v>
   <v type="logical" >  T  T  T </v>
   <v type="logical" >  T  T  T </v>
   <v type="logical" >  T  T  T </v>
   <v type="logical" >  T  T  T </v>
   <v type="logical" >  T  T  T </v>
   <v type="logical" >  T  T  T </v>
   <v type="logical" >  T  T  T </v>
   <v type="logical" >  T  T  T </v>
   <v type="logical" >  T  T  T </v>
   <v type="logical" >  T  T  T </v>
   <v type="logical" >  T  T  T </v>
   <v type="logical" >  T  T  T </v>
   <v type="logical" >  T  T  T </v>
   <v type="logical" >  T  T  T </v>
   <v type="logical" >  T  T  T </v>
   <v type="logical" >  T  T  T </v>
   <v type="logical" >  T  T  T </v>
   <v type="logical" >  T  T  T </v>
   <v type="logical" >  T  T  T </v>
   <v type="logical" >  T  T  T </v>
   <v type="logical" >  T  T  T </v>
   <v type="logical" >  T  T  T </v>
   <v type="logical" >  T  T  T </v>
   <v type="logical" >  T  T  T </v>
   <v type="logical" >  T  T  T </v>
   <v type="logical" >  T  T  T </v>
   <v type="logical" >  T  T  T </v>
   <v type="logical" >  T  T  T </v>
   <v type="logical" >  T  T  T </v>
   <v type="logical" >  T  T  T </v>
   <v type="logical" >  T  T  T </v>
   <v type="logical" >  T  T  T </v>
   <v type="logical" >  T  T  T </v>
   <v type="logical" >  T  T  T </v>
   <v type="logical" >  T  T  T </v>
   <v type="logical" >  T  T  T </v>
   <v type="logical" >  T  T  T </v>
   <v type="logical" >  T  T  T </v>
   <v type="logical" >  T  T  T </v>
   <v type="logical" >  T  T  T </v>
   <v type="logical" >  T  T  T </v>
   <v type="logical" >  T  T  T </v>
   <v type="logical" >  T  T  T </v>
   <v type="logical" >  T  T  T </v>
   <v type="logical" >  T  T  T </v>
   <v type="logical" >  T  T  T </v>
   <v type="logical" >  T  T  T </v>
   <v type="logical" >  T  T  T </v>
   <v type="logical" >  T  T  T </v>
   <v type="logical" >  T  T  T </v>
   <v type="logical" >  T  T  T </v>
   <v type="logical" >  T  T  T </v>
   <v type="logical" >  T  T  T </v>
   <v type="logical" >  T  T  T </v>
   <v type="logical" >  T  T  T </v>
   <v type="logical" >  T  T  T </v>
   <v type="logical" >  T  T  T </v>
   <v type="logical" >  T  T  T </v>
   <v type="logical" >  T  T  T </v>
   <v type="logical" >  T  T  T </v>
   <v type="logical" >  T  T  T </v>
   <v type="logical" >  T  T  T </v>
   <v type="logical" >  T  T  T </v>
   <v type="logical" >  T  T  T </v>
   <v type="logical" >  T  T  T </v>
   <v type="logical" >  T  T  T </v>
   <v type="logical" >  T  T  T </v>
   <v type="logical" >  T  T  T </v>
   <v type="logical" >  T  T  T </v>
   <v type="logical" >  T  T  T </v>
   <v type="logical" >  T  T  T </v>
   <v type="logical" >  T  T  T </v>
   <v type="logical" >  T  T  T </v>
   <v type="logical" >  T  T  T </v>
   <v type="logical" >  T  T  T </v>
   <v type="logical" >  T  T  T </v>
   <v type="logical" >  T  T  T </v>
   <v type="logical" >  T  T  T </v>
   <v type="logical" >  T  T  T </v>
   <v type="logical" >  T  T  T </v>
   <v type="logical" >  T  T  T </v>
   <v type="logical" >  T  T  T </v>
   <v type="logical" >  T  T  T </v>
   <v type="logical" >  T  T  T </v>
   <v type="logical" >  T  T  T </v>
   <v type="logical" >  T  T  T </v>
   <v type="logical" >  T  T  T </v>
   <v type="logical" >  T  T  T </v>
   <v type="logical" >  T  T  T </v>
   <v type="logical" >  T  T  T </v>
   <v type="logical" >  T  T  T </v>
   <v type="logical" >  T  T  T </v>
   <v type="logical" >  T  T  T </v>
   <v type="logical" >  T  T  T </v>
   <v type="logical" >  T  T  T </v>
   <v type="logical" >  F  F  F </v>
   <v type="logical" >  F  F  F </v>
   <v type="logical" >  F  F  F </v>
   <v type="logical" >  F  F  F </v>
   <v type="logical" >  F  F  F </v>
   <v type="logical" >  F  F  F </v>
   <v type="logical" >  F  F  F </v>
   <v type="logical" >  F  F  F </v>
   <v type="logical" >  F  F  F </v>
   <v type="logical" >  F  F  F </v>
   <v type="logical" >  F  F  F </v>
   <v type="logical" >  F  F  F </v>
   <v type="logical" >  F  F  F </v>
   <v type="logical" >  F  F  F </v>
   <v type="logical" >  F  F  F </v>
   <v type="logical" >  F  F  F </v>
   <v type="logical" >  F  F  F </v>
   <v type="logical" >  F  F  F </v>
   <v type="logical" >  F  F  F </v>
   <v type="logical" >  F  F  F </v>
   <v type="logical" >  F  F  F </v>
   <v type="logical" >  F  F  F </v>
   <v type="logical" >  F  F  F </v>
   <v type="logical" >  F  F  F </v>
   <v type="logical" >  F  F  F </v>
   <v type="logical" >  F  F  F </v>
   <v type="logical" >  F  F  F </v>
   <v type="logical" >  F  F  F </v>
   <v type="logical" >  F  F  F </v>
   <v type="logical" >  F  F  F </v>
   <v type="logical" >  F  F  F </v>
   <v type="logical" >  F  F  F </v>
   <v type="logical" >  F  F  F </v>
   <v type="logical" >  F  F  F </v>
   <v type="logical" >  F  F  F </v>
   <v type="logical" >  F  F  F </v>
   <v type="logical" >  F  F  F </v>
   <v type="logical" >  F  F  F </v>
   <v type="logical" >  F  F  F </v>
   <v type="logical" >  F  F  F </v>
   <v type="logical" >  F  F  F </v>
   <v type="logical" >  F  F  F </v>
   <v type="logical" >  F  F  F </v>
   <v type="logical" >  F  F  F </v>
   <v type="logical" >  F  F  F </v>
   <v type="logical" >  F  F  F </v>
   <v type="logical" >  F  F  F </v>
   <v type="logical" >  F  F  F </v>
   <v type="logical" >  F  F  F </v>
   <v type="logical" >  F  F  F </v>
   <v type="logical" >  F  F  F </v>
   <v type="logical" >  F  F  F </v>
   <v type="logical" >  F  F  F </v>
   <v type="logical" >  F  F  F </v>
   <v type="logical" >  F  F  F </v>
   <v type="logical" >  F  F  F </v>
   <v type="logical" >  F  F  F </v>
   <v type="logical" >  F  F  F </v>
   <v type="logical" >  F  F  F </v>
   <v type="logical" >  F  F  F </v>
   <v type="logical" >  F  F  F </v>
   <v type="logical" >  F  F  F </v>
   <v type="logical" >  F  F  F </v>
   <v type="logical" >  F  F  F </v>
   <v type="logical" >  T  T  T </v>
   <v type="logical" >  T  T  T </v>
   <v type="logical" >  T  T  T </v>
   <v type="logical" >  T  T  T </v>
   <v type="logical" >  T  T  T </v>
   <v type="logical" >  T  T  T </v>
   <v type="logical" >  T  T  T </v>
   <v type="logical" >  T  T  T </v>
   <v type="logical" >  T  T  T </v>
   <v type="logical" >  T  T  T </v>
   <v type="logical" >  T  T  T </v>
   <v type="logical" >  T  T  T </v>
   <v type="logical" >  T  T  T </v>
   <v type="logical" >  T  T  T </v>
   <v type="logical" >  T  T  T </v>
   <v type="logical" >  T  T  T </v>
   <v type="logical" >  T  T  T </v>
   <v type="logical" >  T  T  T </v>
   <v type="logical" >  T  T  T </v>
   <v type="logical" >  T  T  T </v>
   <v type="logical" >  T  T  T </v>
   <v type="logical" >  T  T  T </v>
   <v type="logical" >  T  T  T </v>
   <v type="logical" >  T  T  T </v>
   <v type="logical" >  T  T  T </v>
   <v type="logical" >  T  T  T </v>
   <v type="logical" >  T  T  T </v>
   <v type="logical" >  T  T  T </v>
   <v type="logical" >  T  T  T </v>
   <v type="logical" >  T  T  T </v>
   <v type="logical" >  T  T  T </v>
   <v type="logical" >  T  T  T </v>
   <v type="logical" >  T  T  T </v>
   <v type="logical" >  T  T  T </v>
   <v type="logical" >  T  T  T </v>
   <v type="logical" >  T  T  T </v>
   <v type="logical" >  T  T  T </v>
   <v type="logical" >  T  T  T </v>
   <v type="logical" >  T  T  T </v>
   <v type="logical" >  T  T  T </v>
   <v type="logical" >  T  T  T </v>
   <v type="logical" >  T  T  T </v>
   <v type="logical" >  T  T  T </v>
   <v type="logical" >  T  T  T </v>
   <v type="logical" >  T  T  T </v>
   <v type="logical" >  T  T  T </v>
   <v type="logical" >  T  T  T </v>
   <v type="logical" >  T  T  T </v>
   <v type="logical" >  T  T  T </v>
   <v type="logical" >  T  T  T </v>
   <v type="logical" >  T  T  T </v>
   <v type="logical" >  T  T  T </v>
   <v type="logical" >  T  T  T </v>
   <v type="logical" >  T  T  T </v>
   <v type="logical" >  T  T  T </v>
   <v type="logical" >  T  T  T </v>
   <v type="logical" >  T  T  T </v>
   <v type="logical" >  T  T  T </v>
   <v type="logical" >  T  T  T </v>
   <v type="logical" >  T  T  T </v>
   <v type="logical" >  T  T  T </v>
   <v type="logical" >  T  T  T </v>
   <v type="logical" >  T  T  T </v>
   <v type="logical" >  T  T  T </v>
  </varray>
  <varray name="velocities" >
   <v>      -0.00020004       0.00003596       0.00013638 </v>
   <v>      -0.00003321       0.00071898      -0.00008080 </v>
   <v>      -0.00037931       0.00014282      -0.00007196 </v>
   <v>       0.00032509       0.00011179      -0.00017719 </v>
   <v>      -0.00018681       0.00027754      -0.00008275 </v>
   <v>       0.00016793      -0.00042324       0.00004788 </v>
   <v>       0.00038292       0.00027390      -0.00011224 </v>
   <v>       0.00089864      -0.00043169      -0.00021749 </v>
   <v>      -0.00015486      -0.00049474       0.00000657 </v>
   <v>      -0.00039758      -0.00018062      -0.00015962 </v>
   <v>       0.00009022      -0.00029465      -0.00009818 </v>
   <v>      -0.00006388      -0.00083897      -0.00008900 </v>
   <v>       0.00102192      -0.00091592      -0.00027924 </v>
   <v>       0.00076972      -0.00027226      -0.00022999 </v>
   <v>       0.00019242      -0.00074745      -0.00006313 </v>
[...]
   <v type="logical" >  F  F  F </v>
   <v type="logical" >  F  F  F </v>
   <v type="logical" >  F  F  F </v>
   <v type="logical" >  F  F  F </v>
   <v type="logical" >  F  F  F </v>
   <v type="logical" >  F  F  F </v>
   <v type="logical" >  F  F  F </v>
   <v type="logical" >  F  F  F </v>
   <v type="logical" >  F  F  F </v>
   <v type="logical" >  F  F  F </v>
   <v type="logical" >  F  F  F </v>
   <v type="logical" >  F  F  F </v>
   <v type="logical" >  F  F  F </v>
   <v type="logical" >  F  F  F </v>
   <v type="logical" >  F  F  F </v>
   <v type="logical" >  F  F  F </v>
   <v type="logical" >  F  F  F </v>
   <v type="logical" >  F  F  F </v>
   <v type="logical" >  F  F  F </v>
   <v type="logical" >  F  F  F </v>
   <v type="logical" >  F  F  F </v>
   <v type="logical" >  F  F  F </v>
   <v type="logical" >  F  F  F </v>
   <v type="logical" >  F  F  F </v>
   <v type="logical" >  F  F  F </v>
   <v type="logical" >  F  F  F </v>
   <v type="logical" >  F  F  F </v>
   <v type="logical" >  F  F  F </v>
   <v type="logical" >  F  F  F </v>
   <v type="logical" >  F  F  F </v>
   <v type="logical" >  F  F  F </v>
   <v type="logical" >  F  F  F </v>
   <v type="logical" >  F  F  F </v>
   <v type="logical" >  F  F  F </v>
   <v type="logical" >  F  F  F </v>
   <v type="logical" >  F  F  F </v>
   <v type="logical" >  F  F  F </v>
   <v type="logical" >  F  F  F </v>
   <v type="logical" >  F  F  F </v>
   <v type="logical" >  F  F  F </v>
   <v type="logical" >  F  F  F </v>
   <v type="logical" >  F  F  F </v>
   <v type="logical" >  F  F  F </v>
   <v type="logical" >  F  F  F </v>
   <v type="logical" >  F  F  F </v>
   <v type="logical" >  F  F  F </v>
   <v type="logical" >  F  F  F </v>
   <v type="logical" >  F  F  F </v>
   <v type="logical" >  F  F  F </v>
   <v type="logical" >  F  F  F </v>
   <v type="logical" >  F  F  F </v>
   <v type="logical" >  F  F  F </v>
   <v type="logical" >  T  T  T </v>
   <v type="logical" >  T  T  T </v>
   <v type="logical" >  T  T  T </v>
   <v type="logical" >  T  T  T </v>
   <v type="logical" >  T  T  T </v>
   <v type="logical" >  T  T  T </v>
   <v type="logical" >  T  T  T </v>
   <v type="logical" >  T  T  T </v>
   <v type="logical" >  T  T  T </v>
   <v type="logical" >  T  T  T </v>
   <v type="logical" >  T  T  T </v>
   <v type="logical" >  T  T  T </v>
   <v type="logical" >  T  T  T </v>
   <v type="logical" >  T  T  T </v>
   <v type="logical" >  T  T  T </v>
   <v type="logical" >  T  T  T </v>
   <v type="logical" >  T  T  T </v>
   <v type="logical" >  T  T  T </v>
   <v type="logical" >  T  T  T </v>
   <v type="logical" >  T  T  T </v>
   <v type="logical" >  T  T  T </v>
   <v type="logical" >  T  T  T </v>
   <v type="logical" >  T  T  T </v>
   <v type="logical" >  T  T  T </v>
   <v type="logical" >  T  T  T </v>
   <v type="logical" >  T  T  T </v>
   <v type="logical" >  T  T  T </v>
   <v type="logical" >  T  T  T </v>
   <v type="logical" >  T  T  T </v>
   <v type="logical" >  T  T  T </v>
   <v type="logical" >  T  T  T </v>
   <v type="logical" >  T  T  T </v>
   <v type="logical" >  T  T  T </v>
   <v type="logical" >  T  T  T </v>
   <v type="logical" >  T  T  T </v>
   <v type="logical" >  T  T  T </v>
   <v type="logical" >  T  T  T </v>
   <v type="logical" >  T  T  T </v>
   <v type="logical" >  T  T  T </v>
   <v type="logical" >  T  T  T </v>
   <v type="logical" >  T  T  T </v>
   <v type="logical" >  T  T  T </v>
   <v type="logical" >  T  T  T </v>
   <v type="logical" >  T  T  T </v>
   <v type="logical" >  T  T  T </v>
   <v type="logical" >  T  T  T </v>
   <v type="logical" >  T  T  T </v>
   <v type="logical" >  T  T  T </v>
   <v type="logical" >  T  T  T </v>
   <v type="logical" >  T  T  T </v>
   <v type="logical" >  T  T  T </v>
   <v type="logical" >  T  T  T </v>
   <v type="logical" >  T  T  T </v>
   <v type="logical" >  T  T  T </v>
   <v type="logical" >  T  T  T </v>
   <v type="logical" >  T  T  T </v>
   <v type="logical" >  T  T  T </v>
   <v type="logical" >  T  T  T </v>
   <v type="logical" >  T  T  T </v>
   <v type="logical" >  T  T  T </v>
   <v type="logical" >  T  T  T </v>
   <v type="logical" >  T  T  T </v>
   <v type="logical" >  T  T  T </v>
   <v type="logical" >  T  T  T </v>
  </varray>
  <varray name="velocities" >
   <v>       0.00020014      -0.00040008      -0.00021179 </v>
   <v>       0.00025532      -0.00018600      -0.00026690 </v>
   <v>       0.00055395      -0.00042060      -0.00010284 </v>
   <v>       0.00006647       0.00007743      -0.00016341 </v>
   <v>       0.00020322      -0.00033607      -0.00011519 </v>
   <v>       0.00055756      -0.00023510      -0.00004033 </v>
   <v>      -0.00041430      -0.00013208       0.00001638 </v>
   <v>       0.00026187       0.00029255       0.00009034 </v>
   <v>      -0.00021185      -0.00007014      -0.00010243 </v>
   <v>       0.00016344      -0.00025185      -0.00014801 </v>
   <v>       0.00011797      -0.00006277      -0.00023085 </v>
   <v>       0.00077257      -0.00089457       0.00002401 </v>
   <v>      -0.00041050       0.00027664      -0.00006357 </v>
   <v>      -0.00053247       0.00061392       0.00012405 </v>
   <v>       0.00009280       0.00148974      -0.00019679 </v>
   <v>      -0.00023891      -0.00013923      -0.00017530 </v>
   <v>      -0.00125294       0.00159712      -0.00026006 </v>
   <v>       0.00080807      -0.00102065      -0.00062990 </v>
   <v>      -0.00031370      -0.00195614      -0.00060119 </v>
   <v>       0.00168718      -0.00082908      -0.00011440 </v>
   <v>       0.00036254      -0.00192451      -0.00026100 </v>
   <v>      -0.00049984       0.00030772       0.00020918 </v>
   <v>      -0.00117891       0.00128932       0.00006106 </v>
   <v>       0.00125823      -0.00093253      -0.00014639 </v>
   <v>      -0.00162584       0.00059740      -0.00008706 </v>
   <v>       0.00001933       0.00110755      -0.00005496 </v>
   <v>      -0.00116109      -0.00091538      -0.00008745 </v>
   <v>       0.00004216      -0.00108289       0.00077420 </v>
   <v>       0.00036346      -0.00016047      -0.00065769 </v>
   <v>      -0.00003063       0.00118360       0.00001493 </v>
   <v>       0.00158654      -0.00020322      -0.00057614 </v>
   <v>       0.00025695      -0.00126464      -0.00008876 </v>
   <v>      -0.00190984       0.00197441      -0.00023784 </v>
   <v>       0.00015159       0.00003383      -0.00000294 </v>
   <v>      -0.00133048       0.00123866       0.00005163 </v>
   <v>       0.00159935      -0.00006259      -0.00011584 </v>
   <v>      -0.00064599       0.00036652       0.00002214 </v>
   <v>      -0.00087323       0.00026603       0.00008973 </v>
   <v>       0.00157395      -0.00026362      -0.00001235 </v>
   <v>       0.00104307       0.00020546      -0.00000531 </v>
   <v>      -0.00119578       0.00145770      -0.00019599 </v>
   <v>       0.00112085       0.00119877       0.00044164 </v>
   <v>      -0.00099247      -0.00019742       0.00005112 </v>
   <v>       0.00039255      -0.00089641      -0.00002425 </v>
   <v>       0.00093752      -0.00099411       0.00066639 </v>
   <v>      -0.00490939       0.00251741      -0.00119156 </v>
   <v>       0.00148446      -0.00218714       0.00002368 </v>
   <v>      -0.00001775       0.00009753       0.00015195 </v>
   <v>       0.00033240      -0.00056023      -0.00010554 </v>
   <v>       0.00212849      -0.00221693       0.00020096 </v>
   <v>       0.00101201      -0.00030283       0.00002131 </v>
   <v>      -0.00089557       0.00056336       0.00044502 </v>
   <v>       0.00099508      -0.00081872      -0.00017287 </v>
   <v>      -0.00017623       0.00030058      -0.00003708 </v>
   <v>      -0.00009776       0.00010701      -0.00007354 </v>
   <v>      -0.00012477       0.00024419      -0.00013058 </v>
   <v>      -0.00019272      -0.00003214       0.00005005 </v>
   <v>       0.00047640      -0.00012002       0.00002760 </v>
   <v>       0.00000643      -0.00008882      -0.00003985 </v>
   <v>      -0.00026881       0.00010684       0.00012980 </v>
   <v>       0.00025375       0.00028917       0.00004026 </v>
   <v>       0.00000419      -0.00010139      -0.00009400 </v>
   <v>      -0.00007796       0.00002707      -0.00000557 </v>
   <v>      -0.00015570      -0.00001705      -0.00003303 </v>
   <v>      -0.00030370       0.00034718      -0.00007758 </v>
   <v>       0.00046223      -0.00034732       0.00007344 </v>
   <v>       0.00006688      -0.00000486       0.00002292 </v>
   <v>       0.00016618      -0.00027995       0.00010166 </v>
   <v>      -0.00003793      -0.00002743      -0.00002441 </v>
   <v>       0.00016539      -0.00025790      -0.00001341 </v>
   <v>       0.00005076      -0.00026831       0.00007087 </v>
   <v>      -0.00003239       0.00022178       0.00004069 </v>
   <v>      -0.00016149       0.00002255       0.00004776 </v>
   <v>       0.00011196      -0.00019718      -0.00008016 </v>
   <v>       0.00007109      -0.00031591      -0.00007081 </v>
   <v>       0.00009423      -0.00004707      -0.00005904 </v>
   <v>       0.00018644       0.00022946       0.00000448 </v>
   <v>       0.00038239      -0.00026468       0.00002359 </v>
   <v>       0.00003876       0.00032126      -0.00003232 </v>
   <v>       0.00004874      -0.00001469       0.00006335 </v>
   <v>       0.00012021       0.00012110       0.00002904 </v>
   <v>      -0.00032534       0.00013547       0.00006900 </v>
   <v>       0.00009534      -0.00030335       0.00008662 </v>
   <v>       0.00010784      -0.00009312       0.00000547 </v>
   <v>       0.00006785       0.00001660      -0.00007599 </v>
   <v>       0.00004353      -0.00009495       0.00006425 </v>
   <v>       0.00016457       0.00020105       0.00001331 </v>
   <v>      -0.00032679       0.00011099       0.00000510 </v>
   <v>       0.00018593      -0.00021980       0.00000307 </v>
   <v>      -0.00014798      -0.00008493       0.00004389 </v>
   <v>       0.00018855      -0.00021129      -0.00001800 </v>
   <v>      -0.00002767       0.00007998      -0.00002721 </v>
   <v>      -0.00004274       0.00001024       0.00001173 </v>
   <v>      -0.00011390       0.00034922      -0.00001996 </v>
   <v>      -0.00019134       0.00006643       0.00004703 </v>
   <v>       0.00051634      -0.00037581      -0.00000333 </v>
   <v>      -0.00004709       0.00002459       0.00005149 </v>
   <v>      -0.00004914      -0.00020297      -0.00007549 </v>
   <v>       0.00007241       0.00014321       0.00004182 </v>
   <v>      -0.00000028      -0.00007208      -0.00009466 </v>
   <v>      -0.00012046      -0.00018439       0.00002014 </v>
   <v>      -0.00009152       0.00008230      -0.00010877 </v>
   <v>       0.00001909       0.00009244      -0.00000185 </v>
   <v>      -0.00025662       0.00002895       0.00007725 </v>
   <v>      -0.00025112       0.00027688      -0.00003421 </v>
   <v>       0.00016775      -0.00005457       0.00005764 </v>
   <v>       0.00033553      -0.00021757      -0.00008748 </v>
   <v>      -0.00000217      -0.00009588       0.00005698 </v>
   <v>       0.00006699      -0.00023704      -0.00013335 </v>
   <v>       0.00025071      -0.00014769       0.00010167 </v>
   <v>       0.00010639      -0.00003794      -0.00003675 </v>
   <v>      -0.00029171       0.00049545      -0.00006394 </v>
   <v>       0.00008013       0.00002623      -0.00000146 </v>
   <v>       0.00000949      -0.00016130      -0.00000434 </v>
   <v>       0.00025840      -0.00000950      -0.00002782 </v>
   <v>      -0.00002808      -0.00015542      -0.00004163 </v>
   <v>      -0.00010728       0.00015003      -0.00006116 </v>
   <v>      -0.00001098       0.00000461       0.00002896 </v>
   <v>       0.00000000       0.00000000       0.00000000 </v>
   <v>       0.00000000       0.00000000       0.00000000 </v>
   <v>       0.00000000       0.00000000       0.00000000 </v>
   <v>       0.00000000       0.00000000       0.00000000 </v>
   <v>       0.00000000       0.00000000       0.00000000 </v>
   <v>       0.00000000       0.00000000       0.00000000 </v>
   <v>       0.00000000       0.00000000       0.00000000 </v>
   <v>       0.00000000       0.00000000       0.00000000 </v>
   <v>       0.00000000       0.00000000       0.00000000 </v>
   <v>       0.00000000       0.00000000       0.00000000 </v>
   <v>       0.00000000       0.00000000       0.00000000 </v>
   <v>       0.00000000       0.00000000       0.00000000 </v>
   <v>       0.00000000       0.00000000       0.00000000 </v>
   <v>       0.00000000       0.00000000       0.00000000 </v>
   <v>       0.00000000       0.00000000       0.00000000 </v>
   <v>       0.00000000       0.00000000       0.00000000 </v>
   <v>       0.00000000       0.00000000       0.00000000 </v>
   <v>       0.00000000       0.00000000       0.00000000 </v>
   <v>       0.00000000       0.00000000       0.00000000 </v>
   <v>       0.00000000       0.00000000       0.00000000 </v>
   <v>       0.00000000       0.00000000       0.00000000 </v>
   <v>       0.00000000       0.00000000       0.00000000 </v>
   <v>       0.00000000       0.00000000       0.00000000 </v>
   <v>       0.00000000       0.00000000       0.00000000 </v>
   <v>       0.00000000       0.00000000       0.00000000 </v>
   <v>       0.00000000       0.00000000       0.00000000 </v>
   <v>       0.00000000       0.00000000       0.00000000 </v>
   <v>       0.00000000       0.00000000       0.00000000 </v>
   <v>       0.00000000       0.00000000       0.00000000 </v>
   <v>       0.00000000       0.00000000       0.00000000 </v>
   <v>       0.00000000       0.00000000       0.00000000 </v>
   <v>       0.00000000       0.00000000       0.00000000 </v>
   <v>       0.00000000       0.00000000       0.00000000 </v>
   <v>       0.00000000       0.00000000       0.00000000 </v>
   <v>       0.00000000       0.00000000       0.00000000 </v>
   <v>       0.00000000       0.00000000       0.00000000 </v>
   <v>       0.00000000       0.00000000       0.00000000 </v>
   <v>       0.00000000       0.00000000       0.00000000 </v>
   <v>       0.00000000       0.00000000       0.00000000 </v>
   <v>       0.00000000       0.00000000       0.00000000 </v>
   <v>       0.00000000       0.00000000       0.00000000 </v>
   <v>       0.00000000       0.00000000       0.00000000 </v>
   <v>       0.00000000       0.00000000       0.00000000 </v>
   <v>       0.00000000       0.00000000       0.00000000 </v>
   <v>       0.00000000       0.00000000       0.00000000 </v>
   <v>       0.00000000       0.00000000       0.00000000 </v>
   <v>       0.00000000       0.00000000       0.00000000 </v>
   <v>       0.00000000       0.00000000       0.00000000 </v>
   <v>       0.00000000       0.00000000       0.00000000 </v>
   <v>       0.00000000       0.00000000       0.00000000 </v>
   <v>       0.00000000       0.00000000       0.00000000 </v>
   <v>       0.00000000       0.00000000       0.00000000 </v>
   <v>       0.00000000       0.00000000       0.00000000 </v>
   <v>       0.00000000       0.00000000       0.00000000 </v>
   <v>       0.00000000       0.00000000       0.00000000 </v>
   <v>       0.00000000       0.00000000       0.00000000 </v>
   <v>       0.00000000       0.00000000       0.00000000 </v>
   <v>       0.00000000       0.00000000       0.00000000 </v>
   <v>       0.00000000       0.00000000       0.00000000 </v>
   <v>       0.00000000       0.00000000       0.00000000 </v>
   <v>       0.00000000       0.00000000       0.00000000 </v>
   <v>       0.00000000       0.00000000       0.00000000 </v>
   <v>       0.00000000       0.00000000       0.00000000 </v>
   <v>       0.00000000       0.00000000       0.00000000 </v>
   <v>      -0.00015476       0.00000787      -0.00007577 </v>
   <v>      -0.00007670       0.00021505      -0.00003656 </v>
   <v>       0.00015314      -0.00017213      -0.00001101 </v>
   <v>       0.00016805      -0.00016559       0.00002704 </v>
   <v>      -0.00035693       0.00004811      -0.00008969 </v>
   <v>       0.00016382      -0.00018668      -0.00009189 </v>
   <v>       0.00019668      -0.00036985       0.00000553 </v>
   <v>      -0.00022141       0.00001002      -0.00007021 </v>
   <v>      -0.00000787      -0.00000875      -0.00004947 </v>
   <v>      -0.00020565      -0.00014785      -0.00000031 </v>
   <v>      -0.00005799      -0.00021819       0.00001315 </v>
   <v>       0.00028228      -0.00030648       0.00002821 </v>
   <v>       0.00002209       0.00015310       0.00005075 </v>
   <v>       0.00039007       0.00003862       0.00002650 </v>
   <v>      -0.00005341       0.00019055      -0.00009284 </v>
   <v>       0.00032506      -0.00003449      -0.00010246 </v>
   <v>       0.00023533       0.00007443      -0.00003417 </v>
   <v>       0.00021954      -0.00006331       0.00002782 </v>
   <v>       0.00007630      -0.00019835      -0.00001305 </v>
   <v>      -0.00007314       0.00020040       0.00003285 </v>
   <v>       0.00003337      -0.00017024      -0.00011506 </v>
   <v>      -0.00011871       0.00025542       0.00006660 </v>
   <v>       0.00002756       0.00011072      -0.00001154 </v>
   <v>       0.00029005      -0.00030297      -0.00006816 </v>
   <v>      -0.00014055      -0.00007053      -0.00002397 </v>
   <v>      -0.00004556      -0.00012814      -0.00008706 </v>
   <v>       0.00007013      -0.00019689      -0.00004526 </v>
   <v>      -0.00024461      -0.00006448      -0.00004441 </v>
   <v>       0.00006085       0.00027234       0.00001529 </v>
   <v>       0.00022255      -0.00023587      -0.00000398 </v>
   <v>       0.00000549      -0.00009292       0.00003105 </v>
   <v>       0.00000442       0.00000837      -0.00007530 </v>
   <v>       0.00009363       0.00000704      -0.00003376 </v>
   <v>      -0.00001818      -0.00003458      -0.00007524 </v>
   <v>      -0.00014958       0.00009068      -0.00001897 </v>
   <v>       0.00009805      -0.00012294       0.00003632 </v>
   <v>      -0.00008319      -0.00011500      -0.00018947 </v>
   <v>      -0.00001019      -0.00029765       0.00001205 </v>
   <v>      -0.00007696       0.00006735       0.00004469 </v>
   <v>       0.00000429      -0.00014888      -0.00013890 </v>
   <v>      -0.00039762       0.00011305      -0.00015589 </v>
   <v>       0.00018492       0.00020546       0.00005421 </v>
   <v>      -0.00053492       0.00057671       0.00001862 </v>
   <v>       0.00012739      -0.00012553       0.00002494 </v>
   <v>       0.00008835      -0.00024893       0.00001948 </v>
   <v>       0.00051495      -0.00019505      -0.00001236 </v>
   <v>       0.00020838       0.00001076       0.00006087 </v>
   <v>       0.00003299      -0.00015613      -0.00006354 </v>
   <v>      -0.00019500       0.00023942       0.00004023 </v>
   <v>      -0.00001877       0.00019833      -0.00002534 </v>
   <v>      -0.00016984       0.00012733      -0.00000621 </v>
   <v>      -0.00005789      -0.00002498      -0.00005398 </v>
   <v>      -0.00030577       0.00019369       0.00002799 </v>
   <v>       0.00033267      -0.00019125      -0.00003325 </v>
   <v>      -0.00029775      -0.00012708      -0.00001973 </v>
   <v>       0.00006851      -0.00009636      -0.00002261 </v>
   <v>       0.00025475      -0.00004931       0.00006427 </v>
   <v>      -0.00002857       0.00001156      -0.00005085 </v>
   <v>      -0.00013135       0.00008140      -0.00000811 </v>
   <v>      -0.00003658       0.00001952       0.00004858 </v>
   <v>       0.00009423      -0.00030773       0.00006172 </v>
   <v>       0.00024710      -0.00057377       0.00006479 </v>
   <v>       0.00008643       0.00000280      -0.00006106 </v>
   <v>       0.00016523       0.00025378      -0.00002915 </v>
  </varray>
  <nose>
   <v>      -1.00000000       0.00000000     300.00000000     300.00000000 </v>
  </nose>
 </structure>
</modeling>
