<?xml version="1.0" encoding="ISO-8859-1"?>
<modeling>
 <generator>
  <i name="program" type="string">vasp </i>
  <i name="version" type="string">6.4.2  </i>
  <i name="subversion" type="string">20Jul23 (build Mar 19 2024 13:39:35) complex                          parallel </i>
  <i name="platform" type="string">LinuxIFC </i>
  <i name="date" type="string">2025 01 30 </i>
  <i name="time" type="string">04:56:55 </i>
 </generator>
 <incar>
  <i type="string" name="SYSTEM">Si_surface_6layer</i>
  <i type="string" name="PREC">Accurate</i>
  <i type="int" name="NELMIN">     5</i>
  <i type="int" name="IBRION">     0</i>
  <i name="EDIFF">      0.00010000</i>
  <i name="EDIFFG">     -0.00950000</i>
  <i type="int" name="NSW">   100</i>
  <i type="int" name="ISIF">     2</i>
  <i type="int" name="ISYM">     0</i>
  <i name="ENCUT">    540.00000000</i>
  <i type="int" name="NBANDS">   640</i>
  <i name="POTIM">      1.00000000</i>
  <i name="TEBEG">    300.00000000</i>
  <i name="SMASS">     -1.00000000</i>
  <i type="int" name="ISMEAR">     0</i>
  <i name="SIGMA">      0.01000000</i>
  <i type="int" name="NWRITE">     1</i>
  <i type="int" name="IDIPOL">     3</i>
  <i type="int" name="IVDW">    12</i>
  <i type="int" name="MDALGO">     2</i>
 </incar>
 <primitive_cell>
  <structure name="primitive_cell" >
   <crystal>
    <varray name="basis" >
     <v>      15.33298779       0.00000000       0.00000000 </v>
     <v>       7.66649389      13.27875694       0.00000000 </v>
     <v>       0.00000000       0.00000000      41.55799484 </v>
    </varray>
    <i name="volume">   8461.33316923 </i>
    <varray name="rec_basis" >
     <v>       0.06521886      -0.03765413       0.00000000 </v>
     <v>       0.00000000       0.07530825       0.00000000 </v>
     <v>       0.00000000       0.00000000       0.02406276 </v>
    </varray>
   </crystal>
   <varray name="positions" >
    <v>       0.50044026       0.50997365       0.58170668 </v>
    <v>       0.45057543       0.46712220       0.56737691 </v>
    <v>       0.54020489       0.55876408       0.56403204 </v>
    <v>       0.44839989       0.46554706       0.53187300 </v>
    <v>       0.49312244       0.50987670       0.51217150 </v>
    <v>       0.54206707       0.55445985       0.52972759 </v>
    <v>       0.59528513       0.59862784       0.57907709 </v>
    <v>       0.64420578       0.63956299       0.56128782 </v>
    <v>       0.63931985       0.64081967       0.52802902 </v>
    <v>       0.59147061       0.59736887       0.51220649 </v>
    <v>       0.40883717       0.42096142       0.58736067 </v>
    <v>       0.35705100       0.37777314       0.57292440 </v>
    <v>       0.35281690       0.37807568       0.53968698 </v>
    <v>       0.39416324       0.41904994       0.51938370 </v>
    <v>       0.40871811       0.42620370       0.61288307 </v>
    <v>       0.32740336       0.33884951       0.58798859 </v>
    <v>       0.31041833       0.34795349       0.52977959 </v>
    <v>       0.39009896       0.40918875       0.49355004 </v>
    <v>       0.49802285       0.51866802       0.60863834 </v>
    <v>       0.59009585       0.59733628       0.48557228 </v>
    <v>       0.68176887       0.66666784       0.51383268 </v>
    <v>       0.60843500       0.59114118       0.60557928 </v>
    <v>       0.68354677       0.67284041       0.57339730 </v>
    <v>       0.00038200       0.99880661       0.02003828 </v>
    <v>       0.50228438       0.99745030       0.01993961 </v>
    <v>       0.00024016       0.50129332       0.02127535 </v>
    <v>       0.49681462       0.50348332       0.01890184 </v>
    <v>       0.24869855       0.00367215       0.01953790 </v>
    <v>       0.74789528       0.00228109       0.01960704 </v>
    <v>       0.25081345       0.49771235       0.02013986 </v>
    <v>       0.74939541       0.49825419       0.02033309 </v>
    <v>       0.99908588       0.24722666       0.02048837 </v>
    <v>       0.50090233       0.25133380       0.02187032 </v>
    <v>       0.00251962       0.74948208       0.02060764 </v>
    <v>       0.49893101       0.75192688       0.02019192 </v>
    <v>       0.25066018       0.24901142       0.02012216 </v>
    <v>       0.75191191       0.24944275       0.02022586 </v>
    <v>       0.24737996       0.75172611       0.01929126 </v>
    <v>       0.75418491       0.74858316       0.02041065 </v>
    <v>       0.99858134       0.99770107       0.49124928 </v>
    <v>       0.47534902       0.01301663       0.48667134 </v>
    <v>       0.98572724       0.50143504       0.48605983 </v>
    <v>       0.25866865       0.00015646       0.48895666 </v>
    <v>       0.73174976       0.01583976       0.48874087 </v>
    <v>       0.22967872       0.52217557       0.48397893 </v>
    <v>       0.75503549       0.48919441       0.48884123 </v>
    <v>       0.00515798       0.25035840       0.48812597 </v>
    <v>       0.50834611       0.24790015       0.48742735 </v>
    <v>       0.02003634       0.75138917       0.48817692 </v>
    <v>       0.47439458       0.77548849       0.48762046 </v>
    <v>       0.24074987       0.25296151       0.48533338 </v>
    <v>       0.74053880       0.24942974       0.49052333 </v>
    <v>       0.23021083       0.74966884       0.48867854 </v>
    <v>       0.77089357       0.73861708       0.48732105 </v>
    <v>       0.00000000       0.00000000       0.05648431 </v>
    <v>       0.50000000       0.00000000       0.05648431 </v>
    <v>       0.00000000       0.50000000       0.05648431 </v>
    <v>       0.50000000       0.50000000       0.05648431 </v>
    <v>       0.25000000       0.00000000       0.05648431 </v>
    <v>       0.75000000       0.00000000       0.05648431 </v>
    <v>       0.25000000       0.50000000       0.05648431 </v>
    <v>       0.75000000       0.50000000       0.05648431 </v>
    <v>       0.00000000       0.25000000       0.05648431 </v>
    <v>       0.50000000       0.25000000       0.05648431 </v>
    <v>       0.00000000       0.75000000       0.05648431 </v>
    <v>       0.50000000       0.75000000       0.05648431 </v>
    <v>       0.25000000       0.25000000       0.05648431 </v>
    <v>       0.75000000       0.25000000       0.05648431 </v>
    <v>       0.25000000       0.75000000       0.05648431 </v>
    <v>       0.75000000       0.75000000       0.05648431 </v>
    <v>       0.83333331       0.83333331       0.07531242 </v>
    <v>       0.33333334       0.83333331       0.07531242 </v>
    <v>       0.83333331       0.33333334       0.07531242 </v>
    <v>       0.33333334       0.33333334       0.07531242 </v>
    <v>       0.08333334       0.83333331       0.07531242 </v>
    <v>       0.58333331       0.83333331       0.07531242 </v>
    <v>       0.08333334       0.33333334       0.07531242 </v>
    <v>       0.58333331       0.33333334       0.07531242 </v>
    <v>       0.83333331       0.08333334       0.07531242 </v>
    <v>       0.33333334       0.08333334       0.07531242 </v>
    <v>       0.83333331       0.58333331       0.07531242 </v>
    <v>       0.33333334       0.58333331       0.07531242 </v>
    <v>       0.08333334       0.08333334       0.07531242 </v>
    <v>       0.58333331       0.08333334       0.07531242 </v>
    <v>       0.08333334       0.58333331       0.07531242 </v>
    <v>       0.58333331       0.58333331       0.07531242 </v>
    <v>       0.83333331       0.83333331       0.13179672 </v>
    <v>       0.33333334       0.83333331       0.13179672 </v>
    <v>       0.83333331       0.33333334       0.13179672 </v>
    <v>       0.33333334       0.33333334       0.13179672 </v>
    <v>       0.08333334       0.83333331       0.13179672 </v>
    <v>       0.58333331       0.83333331       0.13179672 </v>
    <v>       0.08333334       0.33333334       0.13179672 </v>
    <v>       0.58333331       0.33333334       0.13179672 </v>
    <v>       0.83333331       0.08333334       0.13179672 </v>
    <v>       0.33333334       0.08333334       0.13179672 </v>
    <v>       0.83333331       0.58333331       0.13179672 </v>
    <v>       0.33333334       0.58333331       0.13179672 </v>
    <v>       0.08333334       0.08333334       0.13179672 </v>
    <v>       0.58333331       0.08333334       0.13179672 </v>
    <v>       0.08333334       0.58333331       0.13179672 </v>
    <v>       0.58333331       0.58333331       0.13179672 </v>
    <v>       0.66666669       0.66666669       0.15062483 </v>
    <v>       0.16666667       0.66666669       0.15062483 </v>
    <v>       0.66666669       0.16666667       0.15062483 </v>
    <v>       0.16666667       0.16666667       0.15062483 </v>
    <v>       0.91666669       0.66666669       0.15062483 </v>
    <v>       0.41666666       0.66666669       0.15062483 </v>
    <v>       0.91666669       0.16666667       0.15062483 </v>
    <v>       0.41666666       0.16666667       0.15062483 </v>
    <v>       0.66666669       0.91666669       0.15062483 </v>
    <v>       0.16666667       0.91666669       0.15062483 </v>
    <v>       0.66666669       0.41666666       0.15062483 </v>
    <v>       0.16666667       0.41666666       0.15062483 </v>
    <v>       0.91666669       0.91666669       0.15062483 </v>
    <v>       0.41666666       0.91666669       0.15062483 </v>
    <v>       0.91666669       0.41666666       0.15062483 </v>
    <v>       0.41666666       0.41666666       0.15062483 </v>
    <v>       0.66691256       0.66650248       0.20705401 </v>
    <v>       0.16691388       0.66649014       0.20705898 </v>
    <v>       0.66690344       0.16650572       0.20706598 </v>
    <v>       0.16684061       0.16660814       0.20708179 </v>
    <v>       0.91692531       0.66649854       0.20705918 </v>
    <v>       0.41692519       0.66647869       0.20706536 </v>
    <v>       0.91692513       0.16650243       0.20707472 </v>
    <v>       0.41696414       0.16651435       0.20706745 </v>
    <v>       0.66691798       0.91648233       0.20704251 </v>
    <v>       0.16694951       0.91644073       0.20704633 </v>
    <v>       0.66691595       0.41648963       0.20705459 </v>
    <v>       0.16692059       0.41647589       0.20705572 </v>
    <v>       0.91694874       0.91646326       0.20705239 </v>
    <v>       0.41701031       0.91640425       0.20704820 </v>
    <v>       0.91693836       0.41649175       0.20706076 </v>
    <v>       0.41692036       0.41647944       0.20706344 </v>
    <v>       0.50027961       0.49979386       0.22588077 </v>
    <v>       0.00028667       0.49982324       0.22588117 </v>
    <v>       0.50028664       0.99980050       0.22585523 </v>
    <v>       0.00032078       0.99976605       0.22586109 </v>
    <v>       0.75028151       0.49981755       0.22585415 </v>
    <v>       0.25025454       0.49979892       0.22586794 </v>
    <v>       0.75028825       0.99977207       0.22584361 </v>
    <v>       0.25032210       0.99981099       0.22577891 </v>
    <v>       0.50031888       0.74973106       0.22591362 </v>
    <v>       0.00028389       0.74979836       0.22589213 </v>
    <v>       0.50029421       0.24984773       0.22593303 </v>
    <v>       0.00016690       0.24989246       0.22594904 </v>
    <v>       0.75026935       0.74982309       0.22586657 </v>
    <v>       0.25028658       0.74977243       0.22589330 </v>
    <v>       0.75025457       0.24982803       0.22588789 </v>
    <v>       0.25034884       0.24982284       0.22589789 </v>
    <v>       0.50049311       0.49963021       0.28230625 </v>
    <v>       0.00050731       0.49968964       0.28230851 </v>
    <v>       0.50051337       0.99962586       0.28226964 </v>
    <v>       0.00059072       0.99956340       0.28227770 </v>
    <v>       0.75046229       0.49970725       0.28226706 </v>
    <v>       0.25044429       0.49965557       0.28228562 </v>
    <v>       0.75051129       0.99957675       0.28225109 </v>
    <v>       0.25060219       0.99960679       0.28215270 </v>
    <v>       0.50056702       0.74950278       0.28235546 </v>
    <v>       0.00050130       0.74963838       0.28232343 </v>
    <v>       0.50053847       0.24974354       0.28238247 </v>
    <v>       0.00022542       0.24985044       0.28240289 </v>
    <v>       0.75046211       0.74969256       0.28228702 </v>
    <v>       0.25051790       0.74957991       0.28232459 </v>
    <v>       0.75041085       0.24970731       0.28231667 </v>
    <v>       0.25066370       0.24970363       0.28232852 </v>
    <v>       0.33391163       0.33313787       0.30122887 </v>
    <v>       0.83340478       0.33325410       0.30123816 </v>
    <v>       0.33380580       0.83306384       0.30105916 </v>
    <v>       0.83384037       0.83295310       0.30113371 </v>
    <v>       0.58387220       0.33310598       0.30124070 </v>
    <v>       0.08398666       0.33295631       0.30108731 </v>
    <v>       0.58382905       0.83298177       0.30112000 </v>
    <v>       0.08388577       0.83291119       0.30115693 </v>
    <v>       0.33384538       0.58284026       0.30112975 </v>
    <v>       0.83381855       0.58302647       0.30109687 </v>
    <v>       0.33384517       0.08289958       0.30104594 </v>
    <v>       0.83388197       0.08288339       0.30102269 </v>
    <v>       0.58398402       0.58273447       0.30118588 </v>
    <v>       0.08386202       0.58297580       0.30116989 </v>
    <v>       0.58390039       0.08290785       0.30108313 </v>
    <v>       0.08406826       0.08289581       0.30098030 </v>
    <v>       0.33455058       0.33750696       0.35823896 </v>
    <v>       0.83584726       0.33108893       0.35832484 </v>
    <v>       0.33374457       0.83076898       0.36015605 </v>
    <v>       0.83795114       0.83206664       0.35755728 </v>
    <v>       0.57936716       0.34326698       0.35966164 </v>
    <v>       0.08251522       0.33488328       0.35840398 </v>
    <v>       0.58151654       0.84208700       0.35865356 </v>
    <v>       0.08377862       0.83843386       0.35805101 </v>
    <v>       0.33968314       0.58302135       0.35939469 </v>
    <v>       0.82664739       0.58688646       0.35748534 </v>
    <v>       0.32470828       0.08872857       0.35743900 </v>
    <v>       0.82955010       0.09063148       0.35827609 </v>
    <v>       0.58443164       0.58811157       0.35947312 </v>
    <v>       0.08180235       0.58721522       0.35640476 </v>
    <v>       0.58417803       0.08368903       0.35774930 </v>
    <v>       0.07880775       0.08304709       0.35912003 </v>
    <v>       0.15739136       0.17389632       0.37633080 </v>
    <v>       0.66350353       0.17023489       0.37684715 </v>
    <v>       0.16738634       0.66944086       0.37255081 </v>
    <v>       0.66430812       0.67485447       0.37833701 </v>
    <v>       0.41647808       0.16335051       0.37461316 </v>
    <v>       0.91263222       0.16904331       0.38040485 </v>
    <v>       0.42190785       0.66537446       0.37983974 </v>
    <v>       0.91612028       0.66600510       0.37622347 </v>
    <v>       0.16891300       0.42355953       0.37669777 </v>
    <v>       0.66951949       0.41759611       0.37831363 </v>
    <v>       0.16671652       0.92195784       0.38132868 </v>
    <v>       0.67168308       0.91398559       0.37745823 </v>
    <v>       0.41188057       0.42312019       0.37960332 </v>
    <v>       0.91052689       0.41880123       0.37585347 </v>
    <v>       0.41221080       0.92341936       0.37561849 </v>
    <v>       0.91631337       0.92223309       0.37694823 </v>
    <v>       0.16425402       0.16749221       0.43273430 </v>
    <v>       0.66178176       0.16478162       0.43441859 </v>
    <v>       0.16524508       0.66948309       0.42921043 </v>
    <v>       0.67025318       0.66167361       0.43570778 </v>
    <v>       0.41357303       0.17346220       0.42990860 </v>
    <v>       0.91148071       0.17017397       0.43577792 </v>
    <v>       0.41328413       0.67183411       0.43645847 </v>
    <v>       0.92006283       0.67156963       0.43307039 </v>
    <v>       0.16541835       0.41482884       0.43364523 </v>
    <v>       0.65824929       0.41909729       0.43546656 </v>
    <v>       0.15560568       0.92506317       0.43711085 </v>
    <v>       0.66322044       0.91434854       0.43423031 </v>
    <v>       0.41531508       0.42247045       0.43747617 </v>
    <v>       0.91166563       0.42286042       0.43199833 </v>
    <v>       0.41066252       0.92200606       0.43202947 </v>
    <v>       0.91020483       0.92096694       0.43456244 </v>
    <v>       0.99175482       0.00681161       0.45541733 </v>
    <v>       0.49362051       0.00854039       0.45042440 </v>
    <v>       0.99307498       0.50308845       0.45029971 </v>
    <v>       0.49358441       0.50900846       0.46455866 </v>
    <v>       0.24965262       0.00163427       0.45315131 </v>
    <v>       0.74558254       0.99638520       0.45319508 </v>
    <v>       0.24170754       0.50599084       0.44939327 </v>
    <v>       0.75163781       0.49526605       0.45349939 </v>
    <v>       0.00526966       0.25287686       0.45120635 </v>
    <v>       0.49374221       0.25409572       0.45158934 </v>
    <v>       0.00144244       0.75515303       0.45229316 </v>
    <v>       0.49513869       0.75740734       0.45217851 </v>
    <v>       0.25069611       0.24471630       0.44928918 </v>
    <v>       0.74228580       0.25250873       0.45387868 </v>
    <v>       0.24420145       0.75327932       0.45221132 </v>
    <v>       0.75570682       0.74583907       0.45100021 </v>
   </varray>
  </structure>
  <varray name="primitive_index" >
   <v type="int" >        1 </v>
   <v type="int" >        2 </v>
   <v type="int" >        3 </v>
   <v type="int" >        4 </v>
   <v type="int" >        5 </v>
   <v type="int" >        6 </v>
   <v type="int" >        7 </v>
   <v type="int" >        8 </v>
   <v type="int" >        9 </v>
   <v type="int" >       10 </v>
   <v type="int" >       11 </v>
   <v type="int" >       12 </v>
   <v type="int" >       13 </v>
   <v type="int" >       14 </v>
   <v type="int" >       15 </v>
   <v type="int" >       16 </v>
   <v type="int" >       17 </v>
   <v type="int" >       18 </v>
   <v type="int" >       19 </v>
   <v type="int" >       20 </v>
   <v type="int" >       21 </v>
   <v type="int" >       22 </v>
   <v type="int" >       23 </v>
   <v type="int" >       24 </v>
   <v type="int" >       25 </v>
   <v type="int" >       26 </v>
   <v type="int" >       27 </v>
   <v type="int" >       28 </v>
   <v type="int" >       29 </v>
   <v type="int" >       30 </v>
   <v type="int" >       31 </v>
   <v type="int" >       32 </v>
   <v type="int" >       33 </v>
   <v type="int" >       34 </v>
   <v type="int" >       35 </v>
   <v type="int" >       36 </v>
   <v type="int" >       37 </v>
   <v type="int" >       38 </v>
   <v type="int" >       39 </v>
   <v type="int" >       40 </v>
   <v type="int" >       41 </v>
   <v type="int" >       42 </v>
   <v type="int" >       43 </v>
   <v type="int" >       44 </v>
   <v type="int" >       45 </v>
   <v type="int" >       46 </v>
   <v type="int" >       47 </v>
   <v type="int" >       48 </v>
   <v type="int" >       49 </v>
   <v type="int" >       50 </v>
   <v type="int" >       51 </v>
   <v type="int" >       52 </v>
   <v type="int" >       53 </v>
   <v type="int" >       54 </v>
   <v type="int" >       55 </v>
   <v type="int" >       56 </v>
   <v type="int" >       57 </v>
   <v type="int" >       58 </v>
   <v type="int" >       59 </v>
   <v type="int" >       60 </v>
   <v type="int" >       61 </v>
   <v type="int" >       62 </v>
   <v type="int" >       63 </v>
   <v type="int" >       64 </v>
   <v type="int" >       65 </v>
   <v type="int" >       66 </v>
   <v type="int" >       67 </v>
   <v type="int" >       68 </v>
   <v type="int" >       69 </v>
   <v type="int" >       70 </v>
   <v type="int" >       71 </v>
   <v type="int" >       72 </v>
   <v type="int" >       73 </v>
   <v type="int" >       74 </v>
   <v type="int" >       75 </v>
   <v type="int" >       76 </v>
   <v type="int" >       77 </v>
   <v type="int" >       78 </v>
   <v type="int" >       79 </v>
   <v type="int" >       80 </v>
   <v type="int" >       81 </v>
   <v type="int" >       82 </v>
   <v type="int" >       83 </v>
   <v type="int" >       84 </v>
   <v type="int" >       85 </v>
   <v type="int" >       86 </v>
   <v type="int" >       87 </v>
   <v type="int" >       88 </v>
   <v type="int" >       89 </v>
   <v type="int" >       90 </v>
   <v type="int" >       91 </v>
   <v type="int" >       92 </v>
   <v type="int" >       93 </v>
   <v type="int" >       94 </v>
   <v type="int" >       95 </v>
   <v type="int" >       96 </v>
   <v type="int" >       97 </v>
   <v type="int" >       98 </v>
   <v type="int" >       99 </v>
   <v type="int" >      100 </v>
   <v type="int" >      101 </v>
   <v type="int" >      102 </v>
   <v type="int" >      103 </v>
   <v type="int" >      104 </v>
   <v type="int" >      105 </v>
   <v type="int" >      106 </v>
   <v type="int" >      107 </v>
   <v type="int" >      108 </v>
   <v type="int" >      109 </v>
   <v type="int" >      110 </v>
   <v type="int" >      111 </v>
   <v type="int" >      112 </v>
   <v type="int" >      113 </v>
   <v type="int" >      114 </v>
   <v type="int" >      115 </v>
   <v type="int" >      116 </v>
   <v type="int" >      117 </v>
   <v type="int" >      118 </v>
   <v type="int" >      119 </v>
   <v type="int" >      120 </v>
   <v type="int" >      121 </v>
   <v type="int" >      122 </v>
   <v type="int" >      123 </v>
   <v type="int" >      124 </v>
   <v type="int" >      125 </v>
   <v type="int" >      126 </v>
   <v type="int" >      127 </v>
   <v type="int" >      128 </v>
   <v type="int" >      129 </v>
   <v type="int" >      130 </v>
   <v type="int" >      131 </v>
   <v type="int" >      132 </v>
   <v type="int" >      133 </v>
   <v type="int" >      134 </v>
   <v type="int" >      135 </v>
   <v type="int" >      136 </v>
   <v type="int" >      137 </v>
   <v type="int" >      138 </v>
   <v type="int" >      139 </v>
   <v type="int" >      140 </v>
   <v type="int" >      141 </v>
   <v type="int" >      142 </v>
   <v type="int" >      143 </v>
   <v type="int" >      144 </v>
   <v type="int" >      145 </v>
   <v type="int" >      146 </v>
   <v type="int" >      147 </v>
   <v type="int" >      148 </v>
   <v type="int" >      149 </v>
   <v type="int" >      150 </v>
   <v type="int" >      151 </v>
   <v type="int" >      152 </v>
   <v type="int" >      153 </v>
   <v type="int" >      154 </v>
   <v type="int" >      155 </v>
   <v type="int" >      156 </v>
   <v type="int" >      157 </v>
   <v type="int" >      158 </v>
   <v type="int" >      159 </v>
   <v type="int" >      160 </v>
   <v type="int" >      161 </v>
   <v type="int" >      162 </v>
   <v type="int" >      163 </v>
   <v type="int" >      164 </v>
   <v type="int" >      165 </v>
   <v type="int" >      166 </v>
   <v type="int" >      167 </v>
   <v type="int" >      168 </v>
   <v type="int" >      169 </v>
   <v type="int" >      170 </v>
   <v type="int" >      171 </v>
   <v type="int" >      172 </v>
   <v type="int" >      173 </v>
   <v type="int" >      174 </v>
   <v type="int" >      175 </v>
   <v type="int" >      176 </v>
   <v type="int" >      177 </v>
   <v type="int" >      178 </v>
   <v type="int" >      179 </v>
   <v type="int" >      180 </v>
   <v type="int" >      181 </v>
   <v type="int" >      182 </v>
   <v type="int" >      183 </v>
   <v type="int" >      184 </v>
   <v type="int" >      185 </v>
   <v type="int" >      186 </v>
   <v type="int" >      187 </v>
   <v type="int" >      188 </v>
   <v type="int" >      189 </v>
   <v type="int" >      190 </v>
   <v type="int" >      191 </v>
   <v type="int" >      192 </v>
   <v type="int" >      193 </v>
   <v type="int" >      194 </v>
   <v type="int" >      195 </v>
   <v type="int" >      196 </v>
   <v type="int" >      197 </v>
   <v type="int" >      198 </v>
   <v type="int" >      199 </v>
   <v type="int" >      200 </v>
   <v type="int" >      201 </v>
   <v type="int" >      202 </v>
   <v type="int" >      203 </v>
   <v type="int" >      204 </v>
   <v type="int" >      205 </v>
   <v type="int" >      206 </v>
   <v type="int" >      207 </v>
   <v type="int" >      208 </v>
   <v type="int" >      209 </v>
   <v type="int" >      210 </v>
   <v type="int" >      211 </v>
   <v type="int" >      212 </v>
   <v type="int" >      213 </v>
   <v type="int" >      214 </v>
   <v type="int" >      215 </v>
   <v type="int" >      216 </v>
   <v type="int" >      217 </v>
   <v type="int" >      218 </v>
   <v type="int" >      219 </v>
   <v type="int" >      220 </v>
   <v type="int" >      221 </v>
   <v type="int" >      222 </v>
   <v type="int" >      223 </v>
   <v type="int" >      224 </v>
   <v type="int" >      225 </v>
   <v type="int" >      226 </v>
   <v type="int" >      227 </v>
   <v type="int" >      228 </v>
   <v type="int" >      229 </v>
   <v type="int" >      230 </v>
   <v type="int" >      231 </v>
   <v type="int" >      232 </v>
   <v type="int" >      233 </v>
   <v type="int" >      234 </v>
   <v type="int" >      235 </v>
   <v type="int" >      236 </v>
   <v type="int" >      237 </v>
   <v type="int" >      238 </v>
   <v type="int" >      239 </v>
   <v type="int" >      240 </v>
   <v type="int" >      241 </v>
   <v type="int" >      242 </v>
   <v type="int" >      243 </v>
   <v type="int" >      244 </v>
   <v type="int" >      245 </v>
   <v type="int" >      246 </v>
  </varray>
 </primitive_cell>
 <kpoints>
  <generation param="Gamma">
   <v type="int" name="divisions">       3        3        1 </v>
   <v name="usershift">      0.00000000       0.00000000       0.00000000 </v>
   <v name="genvec1">      0.33333333       0.00000000       0.00000000 </v>
   <v name="genvec2">      0.00000000       0.33333333       0.00000000 </v>
   <v name="genvec3">      0.00000000       0.00000000       1.00000000 </v>
   <v name="shift">      0.00000000       0.00000000       0.00000000 </v>
  </generation>
  <varray name="kpointlist" >
   <v>       0.00000000       0.00000000       0.00000000 </v>
   <v>       0.33333333       0.00000000       0.00000000 </v>
   <v>       0.33333333       0.33333333       0.00000000 </v>
   <v>       0.00000000       0.33333333       0.00000000 </v>
   <v>      -0.33333333       0.33333333       0.00000000 </v>
  </varray>
  <varray name="weights" >
   <v>       0.11111111 </v>
   <v>       0.22222222 </v>
   <v>       0.22222222 </v>
   <v>       0.22222222 </v>
   <v>       0.22222222 </v>
  </varray>
 </kpoints>
 <parameters>
  <separator name="general" >
   <i type="string" name="SYSTEM">Si_surface_6layer</i>
   <i type="logical" name="LCOMPAT"> F  </i>
  </separator>
  <separator name="electronic" >
   <i type="string" name="PREC">accura</i>
   <i name="ENMAX">    540.00000000</i>
   <i name="ENAUG">    644.87300000</i>
   <i name="EDIFF">      0.00010000</i>
   <i type="int" name="IALGO">    38</i>
   <i type="int" name="IWAVPR">    12</i>
   <i type="int" name="NBANDS">   640</i>
   <i type="int" name="NBANDSLOW">    -1</i>
   <i type="int" name="NBANDSHIGH">    -1</i>
   <i name="NELECT">    864.00000000</i>
   <i type="int" name="TURBO">     0</i>
   <i type="int" name="IRESTART">     0</i>
   <i type="int" name="NREBOOT">     0</i>
   <i type="int" name="NMIN">     0</i>
   <i name="EREF">      0.00000000</i>
   <separator name="electronic smearing" >
    <i type="int" name="ISMEAR">     0</i>
    <i name="SIGMA">      0.01000000</i>
    <i name="KSPACING">      0.50000000</i>
    <i type="logical" name="KGAMMA"> T  </i>
    <i type="logical" name="KBLOWUP"> T  </i>
   </separator>
   <separator name="electronic projectors" >
    <i type="logical" name="LREAL"> F  </i>
    <v name="ROPT">      0.00000000      0.00000000      0.00000000</v>
    <i type="int" name="LMAXPAW">  -100</i>
    <i type="int" name="LMAXMIX">     2</i>
    <i type="logical" name="NLSPLINE"> F  </i>
   </separator>
   <separator name="electronic startup" >
    <i type="int" name="ISTART">     1</i>
    <i type="int" name="ICHARG">     0</i>
    <i type="int" name="INIWAV">     1</i>
   </separator>
   <separator name="electronic spin" >
    <i type="int" name="ISPIN">     1</i>
    <i type="logical" name="LNONCOLLINEAR"> F  </i>
    <v name="MAGMOM">      1.00000000      1.00000000      1.00000000      1.00000000      1.00000000      1.00000000      1.00000000      1.00000000      1.00000000      1.00000000      1.00000000      1.00000000      1.00000000      1.00000000      1.00000000      1.00000000      1.00000000      1.00000000      1.00000000      1.00000000
      1.00000000      1.00000000      1.00000000      1.00000000      1.00000000      1.00000000      1.00000000      1.00000000      1.00000000      1.00000000      1.00000000      1.00000000      1.00000000      1.00000000      1.00000000      1.00000000      1.00000000      1.00000000      1.00000000      1.00000000
      1.00000000      1.00000000      1.00000000      1.00000000      1.00000000      1.00000000      1.00000000      1.00000000      1.00000000      1.00000000      1.00000000      1.00000000      1.00000000      1.00000000      1.00000000      1.00000000      1.00000000      1.00000000      1.00000000      1.00000000
      1.00000000      1.00000000      1.00000000      1.00000000      1.00000000      1.00000000      1.00000000      1.00000000      1.00000000      1.00000000      1.00000000      1.00000000      1.00000000      1.00000000      1.00000000      1.00000000      1.00000000      1.00000000      1.00000000      1.00000000
      1.00000000      1.00000000      1.00000000      1.00000000      1.00000000      1.00000000      1.00000000      1.00000000      1.00000000      1.00000000      1.00000000      1.00000000      1.00000000      1.00000000      1.00000000      1.00000000      1.00000000      1.00000000      1.00000000      1.00000000
      1.00000000      1.00000000      1.00000000      1.00000000      1.00000000      1.00000000      1.00000000      1.00000000      1.00000000      1.00000000      1.00000000      1.00000000      1.00000000      1.00000000      1.00000000      1.00000000      1.00000000      1.00000000      1.00000000      1.00000000
      1.00000000      1.00000000      1.00000000      1.00000000      1.00000000      1.00000000      1.00000000      1.00000000      1.00000000      1.00000000      1.00000000      1.00000000      1.00000000      1.00000000      1.00000000      1.00000000      1.00000000      1.00000000      1.00000000      1.00000000
      1.00000000      1.00000000      1.00000000      1.00000000      1.00000000      1.00000000      1.00000000      1.00000000      1.00000000      1.00000000      1.00000000      1.00000000      1.00000000      1.00000000      1.00000000      1.00000000      1.00000000      1.00000000      1.00000000      1.00000000
      1.00000000      1.00000000      1.00000000      1.00000000      1.00000000      1.00000000      1.00000000      1.00000000      1.00000000      1.00000000      1.00000000      1.00000000      1.00000000      1.00000000      1.00000000      1.00000000      1.00000000      1.00000000      1.00000000      1.00000000
      1.00000000      1.00000000      1.00000000      1.00000000      1.00000000      1.00000000      1.00000000      1.00000000      1.00000000      1.00000000      1.00000000      1.00000000      1.00000000      1.00000000      1.00000000      1.00000000      1.00000000      1.00000000      1.00000000      1.00000000
      1.00000000      1.00000000      1.00000000      1.00000000      1.00000000      1.00000000      1.00000000      1.00000000      1.00000000      1.00000000      1.00000000      1.00000000      1.00000000      1.00000000      1.00000000      1.00000000      1.00000000      1.00000000      1.00000000      1.00000000
      1.00000000      1.00000000      1.00000000      1.00000000      1.00000000      1.00000000      1.00000000      1.00000000      1.00000000      1.00000000      1.00000000      1.00000000      1.00000000      1.00000000      1.00000000      1.00000000      1.00000000      1.00000000      1.00000000      1.00000000
      1.00000000      1.00000000      1.00000000      1.00000000      1.00000000      1.00000000</v>
    <i name="NUPDOWN">     -1.00000000</i>
    <i type="logical" name="LSORBIT"> F  </i>
    <v name="SAXIS">      0.00000000      0.00000000      1.00000000</v>
    <i type="logical" name="LSPIRAL"> F  </i>
    <v name="QSPIRAL">      0.00000000      0.00000000      0.00000000</v>
    <i type="logical" name="LZEROZ"> F  </i>
   </separator>
   <separator name="electronic exchange-correlation" >
    <i type="logical" name="LASPH"> F  </i>
    <i type="logical" name="LMETAGGA"> F  </i>
   </separator>
   <separator name="electronic convergence" >
    <i type="int" name="NELM">    60</i>
    <i type="int" name="NELMDL">     0</i>
    <i type="int" name="NELMIN">     5</i>
    <i name="ENINI">    540.00000000</i>
    <separator name="electronic convergence detail" >
     <i type="logical" name="LDIAG"> T  </i>
     <i type="logical" name="LSUBROT"> F  </i>
     <i name="WEIMIN">      0.00100000</i>
     <i name="EBREAK">      0.00000004</i>
     <i name="DEPER">      0.30000000</i>
     <i type="int" name="NRMM">     4</i>
     <i name="TIME">      0.40000000</i>
    </separator>
   </separator>
   <separator name="electronic mixer" >
    <i name="AMIX">      0.40000000</i>
    <i name="BMIX">      1.00000000</i>
    <i name="AMIN">      0.10000000</i>
    <i name="AMIX_MAG">      1.60000000</i>
    <i name="BMIX_MAG">      1.00000000</i>
    <separator name="electronic mixer details" >
     <i type="int" name="IMIX">     4</i>
     <i type="logical" name="MIXFIRST"> F  </i>
     <i type="int" name="MAXMIX">   -45</i>
     <i name="WC">    100.00000000</i>
     <i type="int" name="INIMIX">     1</i>
     <i type="int" name="MIXPRE">     1</i>
     <i type="int" name="MREMOVE">     5</i>
    </separator>
   </separator>
   <separator name="electronic dipolcorrection" >
    <i type="logical" name="LDIPOL"> F  </i>
    <i type="logical" name="LMONO"> F  </i>
    <i type="int" name="IDIPOL">     3</i>
    <i name="EPSILON">      1.00000000</i>
    <v name="DIPOL">   -100.00000000   -100.00000000   -100.00000000</v>
    <i name="EFIELD">      0.00000000</i>
   </separator>
  </separator>
  <separator name="grids" >
   <i type="int" name="NGX">   120</i>
   <i type="int" name="NGY">   120</i>
   <i type="int" name="NGZ">   320</i>
   <i type="int" name="NGXF">   240</i>
   <i type="int" name="NGYF">   240</i>
   <i type="int" name="NGZF">   640</i>
   <i type="logical" name="ADDGRID"> F  </i>
  </separator>
  <separator name="ionic" >
   <i type="int" name="NSW">   100</i>
   <i type="int" name="IBRION">     0</i>
   <i type="int" name="MDALGO">     2</i>
   <i type="int" name="ISIF">     2</i>
   <i name="PSTRESS">      0.00000000</i>
   <i name="EDIFFG">     -0.00950000</i>
   <i type="int" name="NFREE">     0</i>
   <i name="POTIM">      1.00000000</i>
   <i name="SMASS">     -1.00000000</i>
   <i name="SCALEE">      1.00000000</i>
  </separator>
  <separator name="ionic md" >
   <i name="TEBEG">    300.00000000</i>
   <i name="TEEND">    300.00000000</i>
   <i type="int" name="NBLOCK">     1</i>
   <i type="int" name="KBLOCK">   100</i>
   <i type="int" name="NPACO">   256</i>
   <i name="APACO">     10.00000000</i>
  </separator>
  <separator name="symmetry" >
   <i type="int" name="ISYM">     0</i>
   <i name="SYMPREC">      0.00001000</i>
  </separator>
  <separator name="dos" >
   <i type="int" name="LORBIT">     0</i>
   <v name="RWIGS">     -1.00000000     -1.00000000     -1.00000000</v>
   <i type="int" name="NEDOS">   301</i>
   <i name="EMIN">     10.00000000</i>
   <i name="EMAX">    -10.00000000</i>
   <i name="EFERMI">      0.00000000</i>
  </separator>
  <separator name="writing" >
   <i type="int" name="NWRITE">     1</i>
   <i type="logical" name="LWAVE"> T  </i>
   <i type="logical" name="LDOWNSAMPLE"> F  </i>
   <i type="logical" name="LCHARG"> T  </i>
   <i type="logical" name="LPARD"> F  </i>
   <i type="logical" name="LVTOT"> F  </i>
   <i type="logical" name="LVHAR"> F  </i>
   <i type="logical" name="LELF"> F  </i>
   <i type="logical" name="LOPTICS"> F  </i>
   <v name="STM">      0.00000000      0.00000000      0.00000000      0.00000000      0.00000000      0.00000000      0.00000000</v>
  </separator>
  <separator name="performance" >
   <i type="int" name="NPAR">     8</i>
   <i type="int" name="NSIM">     4</i>
   <i type="int" name="NBLK">    -1</i>
   <i type="logical" name="LPLANE"> T  </i>
   <i type="logical" name="LSCALAPACK"> T  </i>
   <i type="logical" name="LSCAAWARE"> F  </i>
   <i type="logical" name="LSCALU"> F  </i>
   <i type="logical" name="LASYNC"> F  </i>
   <i type="logical" name="LORBITALREAL"> F  </i>
  </separator>
  <separator name="miscellaneous" >
   <i type="int" name="IDIOT">     3</i>
   <i type="int" name="PHON_NSTRUCT">    -1</i>
   <i type="logical" name="LMUSIC"> F  </i>
   <v name="POMASS">     12.01100000      1.00000000     28.08500000</v>
   <v name="DARWINR">      0.00000000      0.00000000      0.00000000</v>
   <v name="DARWINV">      1.00000000      1.00000000      1.00000000</v>
   <i type="logical" name="LCORR"> T  </i>
  </separator>
  <i type="logical" name="GGA_COMPAT"> T  </i>
  <i type="logical" name="LBERRY"> F  </i>
  <i type="int" name="ICORELEVEL">     0</i>
  <i type="logical" name="LDAU"> F  </i>
  <i type="int" name="I_CONSTRAINED_M">     0</i>
  <separator name="electronic exchange-correlation" >
   <i type="string" name="GGA">--</i>
   <i type="int" name="VOSKOWN">     0</i>
   <i type="logical" name="LHFCALC"> F  </i>
   <i type="string" name="PRECFOCK"></i>
   <i type="logical" name="LSYMGRAD"> F  </i>
   <i type="logical" name="LHFONE"> F  </i>
   <i type="logical" name="LRHFCALC"> F  </i>
   <i type="logical" name="LTHOMAS"> F  </i>
   <i type="logical" name="LMODELHF"> F  </i>
   <i type="logical" name="LFOCKACE"> F  </i>
   <i name="ENCUT4O">     -1.00000000</i>
   <i type="int" name="EXXOEP">     0</i>
   <i type="int" name="FOURORBIT">     0</i>
   <i name="AEXX">      0.00000000</i>
   <i name="HFALPHA">      0.00000000</i>
   <i name="MCALPHA">      0.00000000</i>
   <i name="ALDAX">      1.00000000</i>
   <i name="AGGAX">      1.00000000</i>
   <i name="ALDAC">      1.00000000</i>
   <i name="AGGAC">      1.00000000</i>
   <i type="int" name="NKREDX">     1</i>
   <i type="int" name="NKREDY">     1</i>
   <i type="int" name="NKREDZ">     1</i>
   <i type="logical" name="SHIFTRED"> F  </i>
   <i type="logical" name="ODDONLY"> F  </i>
   <i type="logical" name="EVENONLY"> F  </i>
   <i type="int" name="LMAXFOCK">     0</i>
   <i type="int" name="NMAXFOCKAE">     0</i>
   <i type="logical" name="LFOCKAEDFT"> F  </i>
   <i name="HFSCREEN">      0.00000000</i>
   <i name="HFSCREENC">      0.00000000</i>
   <i type="int" name="NBANDSGWLOW">     0</i>
  </separator>
  <separator name="vdW DFT" >
   <i type="logical" name="LUSE_VDW"> F  </i>
   <i type="int" name="IVDW_NL">     1</i>
   <i type="logical" name="LSPIN_VDW"> F  </i>
   <i name="Zab_VDW">     -0.84910000</i>
   <i name="PARAM1">      0.12340000</i>
   <i name="PARAM2">      1.00000000</i>
   <i name="PARAM3">      0.00000000</i>
  </separator>
  <separator name="model GW" >
   <i type="int" name="MODEL_GW">     0</i>
   <i name="MODEL_EPS0">     20.63739797</i>
   <i name="MODEL_ALPHA">      1.00000000</i>
  </separator>
  <separator name="linear response parameters" >
   <i type="logical" name="LEPSILON"> F  </i>
   <i type="logical" name="LRPA"> F  </i>
   <i type="logical" name="LNABLA"> F  </i>
   <i type="logical" name="LVEL"> F  </i>
   <i name="CSHIFT">      0.10000000</i>
   <i name="OMEGAMAX">     -1.00000000</i>
   <i name="DEG_THRESHOLD">      0.00200000</i>
   <i name="RTIME">     -0.10000000</i>
   <i name="WPLASMAI">      0.00000000</i>
   <v name="DFIELD">      0.00000000      0.00000000      0.00000000</v>
   <v name="WPLASMA">      0.00000000      0.00000000      0.00000000      0.00000000      0.00000000      0.00000000      0.00000000      0.00000000      0.00000000</v>
  </separator>
  <separator name="orbital magnetization" >
   <i type="logical" name="NUCIND"> F  </i>
   <v name="MAGPOS">      0.00000000      0.00000000      0.00000000</v>
   <i type="logical" name="LNICSALL"> T  </i>
   <i type="logical" name="ORBITALMAG"> F  </i>
   <i type="logical" name="LMAGBLOCH"> F  </i>
   <i type="logical" name="LCHIMAG"> F  </i>
   <i type="logical" name="LGAUGE"> T  </i>
   <i type="int" name="MAGATOM">     0</i>
   <v name="MAGDIPOL">      0.00000000      0.00000000      0.00000000</v>
   <v name="AVECCONST">      0.00000000      0.00000000      0.00000000</v>
  </separator>
  <separator name="response functions" >
   <i type="logical" name="LALL_IN_ONE"> F  </i>
   <i type="int" name="IALL_IN_ONE">    -1</i>
   <i type="int" name="NBANDS_WAVE">    -1</i>
   <i type="logical" name="LFINITE_TEMPERATURE"> F  </i>
   <i type="logical" name="LADDER"> F  </i>
   <i type="logical" name="LRPAFORCE"> F  </i>
   <i type="logical" name="LFXC"> F  </i>
   <i type="logical" name="LHARTREE"> T  </i>
   <i type="int" name="IBSE">     0</i>
   <v type="int" name="KPOINT">    -1     0     0     0</v>
   <i type="logical" name="LTCTC"> F  </i>
   <i type="logical" name="LTCTE"> F  </i>
   <i type="logical" name="LTETE"> F  </i>
   <i type="logical" name="LTRIPLET"> F  </i>
   <i type="logical" name="LFXCEPS"> F  </i>
   <i type="logical" name="LFXHEG"> F  </i>
   <i type="int" name="NATURALO">     2</i>
   <i type="logical" name="LHOLEGF"> F  </i>
   <i type="logical" name="L2ORDER"> F  </i>
   <i type="logical" name="LDMP1"> F  </i>
   <i type="logical" name="LMP2LT"> F  </i>
   <i type="logical" name="LSMP2LT"> F  </i>
   <i type="logical" name="LGWLF"> F  </i>
   <i name="ENCUTGW">     -1.60000002</i>
   <i name="ENCUTGWSOFT">     -1.60000002</i>
   <i name="ENCUTLF">     -1.00000000</i>
   <i type="logical" name="LESF_SPLINES"> F  </i>
   <i type="int" name="LMAXMP2">    -1</i>
   <i name="SCISSOR">      0.00000000</i>
   <i type="int" name="NOMEGA">     0</i>
   <i type="int" name="NOMEGAR">     0</i>
   <i type="int" name="NBANDSGW">    -1</i>
   <i type="int" name="NBANDSO">    -1</i>
   <i type="int" name="NBANDSV">    -1</i>
   <i type="int" name="NELMGW">     1</i>
   <i type="int" name="NELMHF">     1</i>
   <i type="int" name="DIM">     3</i>
   <i type="int" name="IESPILON">     4</i>
   <i type="int" name="ANTIRES">     0</i>
   <i name="OMEGAMAX">    -30.00000000</i>
   <i name="OMEGAMIN">    -30.00000000</i>
   <i name="OMEGATL">   -200.00000000</i>
   <i type="int" name="OMEGAGRID">     0</i>
   <i name="CSHIFT">     -0.10000000</i>
   <i type="logical" name="LSELFENERGY"> F  </i>
   <i type="logical" name="LSPECTRAL"> F  </i>
   <i type="logical" name="LSPECTRALGW"> F  </i>
   <i type="logical" name="LSINGLES"> F  </i>
   <i type="logical" name="LFERMIGW"> F  </i>
   <i type="logical" name="ODDONLYGW"> F  </i>
   <i type="logical" name="EVENONLYGW"> F  </i>
   <i type="int" name="NKREDLFX">     1</i>
   <i type="int" name="NKREDLFY">     1</i>
   <i type="int" name="NKREDLFZ">     1</i>
   <i type="int" name="MAXMEM">  2800</i>
   <i type="int" name="TELESCOPE">     0</i>
   <i type="int" name="NTAUPAR">    -1</i>
   <i type="int" name="NOMEGAPAR">    -1</i>
   <i name="DAMP_NEWTON">      0.80000001</i>
   <i name="LAMBDA">      1.00000000</i>
  </separator>
  <separator name="External order field" >
   <i name="OFIELD_KAPPA">      0.00000000</i>
   <v name="OFIELD_K">      0.00000000      0.00000000      0.00000000</v>
   <i name="OFIELD_Q6_NEAR">      0.00000000</i>
   <i name="OFIELD_Q6_FAR">      0.00000000</i>
   <i name="OFIELD_A">      0.00000000</i>
  </separator>
  <separator name="optional k-points parameters" >
   <i type="int" name="KPOINTS_OPT_MODE">     1</i>
   <i type="logical" name="LKPOINTS_OPT"> F  </i>
  </separator>
 </parameters>
 <atominfo>
  <atoms>     246 </atoms>
  <types>       3 </types>
  <array name="atoms" >
   <dimension dim="1">ion</dimension>
   <field type="string">element</field>
   <field type="int">atomtype</field>
   <set>
    <rc><c>C </c><c>   1</c></rc>
    <rc><c>C </c><c>   1</c></rc>
    <rc><c>C </c><c>   1</c></rc>
    <rc><c>C </c><c>   1</c></rc>
    <rc><c>C </c><c>   1</c></rc>
    <rc><c>C </c><c>   1</c></rc>
    <rc><c>C </c><c>   1</c></rc>
    <rc><c>C </c><c>   1</c></rc>
    <rc><c>C </c><c>   1</c></rc>
    <rc><c>C </c><c>   1</c></rc>
    <rc><c>C </c><c>   1</c></rc>
    <rc><c>C </c><c>   1</c></rc>
    <rc><c>C </c><c>   1</c></rc>
    <rc><c>C </c><c>   1</c></rc>
    <rc><c>H </c><c>   2</c></rc>
    <rc><c>H </c><c>   2</c></rc>
    <rc><c>H </c><c>   2</c></rc>
    <rc><c>H </c><c>   2</c></rc>
    <rc><c>H </c><c>   2</c></rc>
    <rc><c>H </c><c>   2</c></rc>
    <rc><c>H </c><c>   2</c></rc>
    <rc><c>H </c><c>   2</c></rc>
    <rc><c>H </c><c>   2</c></rc>
    <rc><c>H </c><c>   2</c></rc>
    <rc><c>H </c><c>   2</c></rc>
    <rc><c>H </c><c>   2</c></rc>
    <rc><c>H </c><c>   2</c></rc>
    <rc><c>H </c><c>   2</c></rc>
    <rc><c>H </c><c>   2</c></rc>
    <rc><c>H </c><c>   2</c></rc>
    <rc><c>H </c><c>   2</c></rc>
    <rc><c>H </c><c>   2</c></rc>
    <rc><c>H </c><c>   2</c></rc>
    <rc><c>H </c><c>   2</c></rc>
    <rc><c>H </c><c>   2</c></rc>
    <rc><c>H </c><c>   2</c></rc>
    <rc><c>H </c><c>   2</c></rc>
    <rc><c>H </c><c>   2</c></rc>
    <rc><c>H </c><c>   2</c></rc>
    <rc><c>H </c><c>   2</c></rc>
    <rc><c>H </c><c>   2</c></rc>
    <rc><c>H </c><c>   2</c></rc>
    <rc><c>H </c><c>   2</c></rc>
    <rc><c>H </c><c>   2</c></rc>
    <rc><c>H </c><c>   2</c></rc>
    <rc><c>H </c><c>   2</c></rc>
    <rc><c>H </c><c>   2</c></rc>
    <rc><c>H </c><c>   2</c></rc>
    <rc><c>H </c><c>   2</c></rc>
    <rc><c>H </c><c>   2</c></rc>
    <rc><c>H </c><c>   2</c></rc>
    <rc><c>H </c><c>   2</c></rc>
    <rc><c>H </c><c>   2</c></rc>
    <rc><c>H </c><c>   2</c></rc>
    <rc><c>Si</c><c>   3</c></rc>
    <rc><c>Si</c><c>   3</c></rc>
    <rc><c>Si</c><c>   3</c></rc>
    <rc><c>Si</c><c>   3</c></rc>
    <rc><c>Si</c><c>   3</c></rc>
    <rc><c>Si</c><c>   3</c></rc>
    <rc><c>Si</c><c>   3</c></rc>
    <rc><c>Si</c><c>   3</c></rc>
    <rc><c>Si</c><c>   3</c></rc>
    <rc><c>Si</c><c>   3</c></rc>
    <rc><c>Si</c><c>   3</c></rc>
    <rc><c>Si</c><c>   3</c></rc>
    <rc><c>Si</c><c>   3</c></rc>
    <rc><c>Si</c><c>   3</c></rc>
    <rc><c>Si</c><c>   3</c></rc>
    <rc><c>Si</c><c>   3</c></rc>
    <rc><c>Si</c><c>   3</c></rc>
    <rc><c>Si</c><c>   3</c></rc>
    <rc><c>Si</c><c>   3</c></rc>
    <rc><c>Si</c><c>   3</c></rc>
    <rc><c>Si</c><c>   3</c></rc>
    <rc><c>Si</c><c>   3</c></rc>
    <rc><c>Si</c><c>   3</c></rc>
    <rc><c>Si</c><c>   3</c></rc>
    <rc><c>Si</c><c>   3</c></rc>
    <rc><c>Si</c><c>   3</c></rc>
    <rc><c>Si</c><c>   3</c></rc>
    <rc><c>Si</c><c>   3</c></rc>
    <rc><c>Si</c><c>   3</c></rc>
    <rc><c>Si</c><c>   3</c></rc>
    <rc><c>Si</c><c>   3</c></rc>
    <rc><c>Si</c><c>   3</c></rc>
    <rc><c>Si</c><c>   3</c></rc>
    <rc><c>Si</c><c>   3</c></rc>
    <rc><c>Si</c><c>   3</c></rc>
    <rc><c>Si</c><c>   3</c></rc>
    <rc><c>Si</c><c>   3</c></rc>
    <rc><c>Si</c><c>   3</c></rc>
    <rc><c>Si</c><c>   3</c></rc>
    <rc><c>Si</c><c>   3</c></rc>
    <rc><c>Si</c><c>   3</c></rc>
    <rc><c>Si</c><c>   3</c></rc>
    <rc><c>Si</c><c>   3</c></rc>
    <rc><c>Si</c><c>   3</c></rc>
    <rc><c>Si</c><c>   3</c></rc>
    <rc><c>Si</c><c>   3</c></rc>
    <rc><c>Si</c><c>   3</c></rc>
    <rc><c>Si</c><c>   3</c></rc>
    <rc><c>Si</c><c>   3</c></rc>
    <rc><c>Si</c><c>   3</c></rc>
    <rc><c>Si</c><c>   3</c></rc>
    <rc><c>Si</c><c>   3</c></rc>
    <rc><c>Si</c><c>   3</c></rc>
    <rc><c>Si</c><c>   3</c></rc>
    <rc><c>Si</c><c>   3</c></rc>
    <rc><c>Si</c><c>   3</c></rc>
    <rc><c>Si</c><c>   3</c></rc>
    <rc><c>Si</c><c>   3</c></rc>
    <rc><c>Si</c><c>   3</c></rc>
    <rc><c>Si</c><c>   3</c></rc>
    <rc><c>Si</c><c>   3</c></rc>
    <rc><c>Si</c><c>   3</c></rc>
    <rc><c>Si</c><c>   3</c></rc>
    <rc><c>Si</c><c>   3</c></rc>
    <rc><c>Si</c><c>   3</c></rc>
    <rc><c>Si</c><c>   3</c></rc>
    <rc><c>Si</c><c>   3</c></rc>
    <rc><c>Si</c><c>   3</c></rc>
    <rc><c>Si</c><c>   3</c></rc>
    <rc><c>Si</c><c>   3</c></rc>
    <rc><c>Si</c><c>   3</c></rc>
    <rc><c>Si</c><c>   3</c></rc>
    <rc><c>Si</c><c>   3</c></rc>
    <rc><c>Si</c><c>   3</c></rc>
    <rc><c>Si</c><c>   3</c></rc>
    <rc><c>Si</c><c>   3</c></rc>
    <rc><c>Si</c><c>   3</c></rc>
    <rc><c>Si</c><c>   3</c></rc>
    <rc><c>Si</c><c>   3</c></rc>
    <rc><c>Si</c><c>   3</c></rc>
    <rc><c>Si</c><c>   3</c></rc>
    <rc><c>Si</c><c>   3</c></rc>
    <rc><c>Si</c><c>   3</c></rc>
    <rc><c>Si</c><c>   3</c></rc>
    <rc><c>Si</c><c>   3</c></rc>
    <rc><c>Si</c><c>   3</c></rc>
    <rc><c>Si</c><c>   3</c></rc>
    <rc><c>Si</c><c>   3</c></rc>
    <rc><c>Si</c><c>   3</c></rc>
    <rc><c>Si</c><c>   3</c></rc>
    <rc><c>Si</c><c>   3</c></rc>
    <rc><c>Si</c><c>   3</c></rc>
    <rc><c>Si</c><c>   3</c></rc>
    <rc><c>Si</c><c>   3</c></rc>
    <rc><c>Si</c><c>   3</c></rc>
    <rc><c>Si</c><c>   3</c></rc>
    <rc><c>Si</c><c>   3</c></rc>
    <rc><c>Si</c><c>   3</c></rc>
    <rc><c>Si</c><c>   3</c></rc>
    <rc><c>Si</c><c>   3</c></rc>
    <rc><c>Si</c><c>   3</c></rc>
    <rc><c>Si</c><c>   3</c></rc>
    <rc><c>Si</c><c>   3</c></rc>
    <rc><c>Si</c><c>   3</c></rc>
    <rc><c>Si</c><c>   3</c></rc>
    <rc><c>Si</c><c>   3</c></rc>
    <rc><c>Si</c><c>   3</c></rc>
    <rc><c>Si</c><c>   3</c></rc>
    <rc><c>Si</c><c>   3</c></rc>
    <rc><c>Si</c><c>   3</c></rc>
    <rc><c>Si</c><c>   3</c></rc>
    <rc><c>Si</c><c>   3</c></rc>
    <rc><c>Si</c><c>   3</c></rc>
    <rc><c>Si</c><c>   3</c></rc>
    <rc><c>Si</c><c>   3</c></rc>
    <rc><c>Si</c><c>   3</c></rc>
    <rc><c>Si</c><c>   3</c></rc>
    <rc><c>Si</c><c>   3</c></rc>
    <rc><c>Si</c><c>   3</c></rc>
    <rc><c>Si</c><c>   3</c></rc>
    <rc><c>Si</c><c>   3</c></rc>
    <rc><c>Si</c><c>   3</c></rc>
    <rc><c>Si</c><c>   3</c></rc>
    <rc><c>Si</c><c>   3</c></rc>
    <rc><c>Si</c><c>   3</c></rc>
    <rc><c>Si</c><c>   3</c></rc>
    <rc><c>Si</c><c>   3</c></rc>
    <rc><c>Si</c><c>   3</c></rc>
    <rc><c>Si</c><c>   3</c></rc>
    <rc><c>Si</c><c>   3</c></rc>
    <rc><c>Si</c><c>   3</c></rc>
    <rc><c>Si</c><c>   3</c></rc>
    <rc><c>Si</c><c>   3</c></rc>
    <rc><c>Si</c><c>   3</c></rc>
    <rc><c>Si</c><c>   3</c></rc>
    <rc><c>Si</c><c>   3</c></rc>
    <rc><c>Si</c><c>   3</c></rc>
    <rc><c>Si</c><c>   3</c></rc>
    <rc><c>Si</c><c>   3</c></rc>
    <rc><c>Si</c><c>   3</c></rc>
    <rc><c>Si</c><c>   3</c></rc>
    <rc><c>Si</c><c>   3</c></rc>
    <rc><c>Si</c><c>   3</c></rc>
    <rc><c>Si</c><c>   3</c></rc>
    <rc><c>Si</c><c>   3</c></rc>
    <rc><c>Si</c><c>   3</c></rc>
    <rc><c>Si</c><c>   3</c></rc>
    <rc><c>Si</c><c>   3</c></rc>
    <rc><c>Si</c><c>   3</c></rc>
    <rc><c>Si</c><c>   3</c></rc>
    <rc><c>Si</c><c>   3</c></rc>
    <rc><c>Si</c><c>   3</c></rc>
    <rc><c>Si</c><c>   3</c></rc>
    <rc><c>Si</c><c>   3</c></rc>
    <rc><c>Si</c><c>   3</c></rc>
    <rc><c>Si</c><c>   3</c></rc>
    <rc><c>Si</c><c>   3</c></rc>
    <rc><c>Si</c><c>   3</c></rc>
    <rc><c>Si</c><c>   3</c></rc>
    <rc><c>Si</c><c>   3</c></rc>
    <rc><c>Si</c><c>   3</c></rc>
    <rc><c>Si</c><c>   3</c></rc>
    <rc><c>Si</c><c>   3</c></rc>
    <rc><c>Si</c><c>   3</c></rc>
    <rc><c>Si</c><c>   3</c></rc>
    <rc><c>Si</c><c>   3</c></rc>
    <rc><c>Si</c><c>   3</c></rc>
    <rc><c>Si</c><c>   3</c></rc>
    <rc><c>Si</c><c>   3</c></rc>
    <rc><c>Si</c><c>   3</c></rc>
    <rc><c>Si</c><c>   3</c></rc>
    <rc><c>Si</c><c>   3</c></rc>
    <rc><c>Si</c><c>   3</c></rc>
    <rc><c>Si</c><c>   3</c></rc>
    <rc><c>Si</c><c>   3</c></rc>
    <rc><c>Si</c><c>   3</c></rc>
    <rc><c>Si</c><c>   3</c></rc>
    <rc><c>Si</c><c>   3</c></rc>
    <rc><c>Si</c><c>   3</c></rc>
    <rc><c>Si</c><c>   3</c></rc>
    <rc><c>Si</c><c>   3</c></rc>
    <rc><c>Si</c><c>   3</c></rc>
    <rc><c>Si</c><c>   3</c></rc>
    <rc><c>Si</c><c>   3</c></rc>
    <rc><c>Si</c><c>   3</c></rc>
    <rc><c>Si</c><c>   3</c></rc>
    <rc><c>Si</c><c>   3</c></rc>
    <rc><c>Si</c><c>   3</c></rc>
    <rc><c>Si</c><c>   3</c></rc>
    <rc><c>Si</c><c>   3</c></rc>
    <rc><c>Si</c><c>   3</c></rc>
    <rc><c>Si</c><c>   3</c></rc>
   </set>
  </array>
  <array name="atomtypes" >
   <dimension dim="1">type</dimension>
   <field type="int">atomspertype</field>
   <field type="string">element</field>
   <field>mass</field>
   <field>valence</field>
   <field type="string">pseudopotential</field>
   <set>
    <rc><c>  14</c><c>C </c><c>     12.01100000</c><c>      4.00000000</c><c>  PAW_PBE C_GW 28Sep2005                </c></rc>
    <rc><c>  40</c><c>H </c><c>      1.00000000</c><c>      1.00000000</c><c>  PAW_PBE H_GW 21Apr2008                </c></rc>
    <rc><c> 192</c><c>Si</c><c>     28.08500000</c><c>      4.00000000</c><c>  PAW_PBE Si_GW 04May2012               </c></rc>
   </set>
  </array>
 </atominfo>
 <structure name="initialpos" >
  <crystal>
   <varray name="basis" >
    <v>      15.33298779       0.00000000       0.00000000 </v>
    <v>       7.66649389      13.27875694       0.00000000 </v>
    <v>       0.00000000       0.00000000      41.55799484 </v>
   </varray>
   <i name="volume">   8461.33316923 </i>
   <varray name="rec_basis" >
    <v>       0.06521886      -0.03765413       0.00000000 </v>
    <v>       0.00000000       0.07530825       0.00000000 </v>
    <v>       0.00000000       0.00000000       0.02406276 </v>
   </varray>
  </crystal>
  <varray name="positions" >
   <v>       0.50044026       0.50997365       0.58170668 </v>
   <v>       0.45057543       0.46712220       0.56737691 </v>
   <v>       0.54020489       0.55876408       0.56403204 </v>
   <v>       0.44839989       0.46554706       0.53187300 </v>
   <v>       0.49312244       0.50987670       0.51217150 </v>
   <v>       0.54206707       0.55445985       0.52972759 </v>
   <v>       0.59528513       0.59862784       0.57907709 </v>
   <v>       0.64420578       0.63956299       0.56128782 </v>
   <v>       0.63931985       0.64081967       0.52802902 </v>
   <v>       0.59147061       0.59736887       0.51220649 </v>
   <v>       0.40883717       0.42096142       0.58736067 </v>
   <v>       0.35705100       0.37777314       0.57292440 </v>
   <v>       0.35281690       0.37807568       0.53968698 </v>
   <v>       0.39416324       0.41904994       0.51938370 </v>
   <v>       0.40871811       0.42620370       0.61288307 </v>
   <v>       0.32740336       0.33884951       0.58798859 </v>
   <v>       0.31041833       0.34795349       0.52977959 </v>
   <v>       0.39009896       0.40918875       0.49355004 </v>
   <v>       0.49802285       0.51866802       0.60863834 </v>
   <v>       0.59009585       0.59733628       0.48557228 </v>
   <v>       0.68176887       0.66666784       0.51383268 </v>
   <v>       0.60843500       0.59114118       0.60557928 </v>
   <v>       0.68354677       0.67284041       0.57339730 </v>
   <v>       0.00038200       0.99880661       0.02003828 </v>
   <v>       0.50228438       0.99745030       0.01993961 </v>
   <v>       0.00024016       0.50129332       0.02127535 </v>
   <v>       0.49681462       0.50348332       0.01890184 </v>
   <v>       0.24869855       0.00367215       0.01953790 </v>
   <v>       0.74789528       0.00228109       0.01960704 </v>
   <v>       0.25081345       0.49771235       0.02013986 </v>
   <v>       0.74939541       0.49825419       0.02033309 </v>
   <v>       0.99908588       0.24722666       0.02048837 </v>
   <v>       0.50090233       0.25133380       0.02187032 </v>
   <v>       0.00251962       0.74948208       0.02060764 </v>
   <v>       0.49893101       0.75192688       0.02019192 </v>
   <v>       0.25066018       0.24901142       0.02012216 </v>
   <v>       0.75191191       0.24944275       0.02022586 </v>
   <v>       0.24737996       0.75172611       0.01929126 </v>
   <v>       0.75418491       0.74858316       0.02041065 </v>
   <v>       0.99858134       0.99770107       0.49124928 </v>
   <v>       0.47534902       0.01301663       0.48667134 </v>
   <v>       0.98572724       0.50143504       0.48605983 </v>
   <v>       0.25866865       0.00015646       0.48895666 </v>
   <v>       0.73174976       0.01583976       0.48874087 </v>
   <v>       0.22967872       0.52217557       0.48397893 </v>
   <v>       0.75503549       0.48919441       0.48884123 </v>
   <v>       0.00515798       0.25035840       0.48812597 </v>
   <v>       0.50834611       0.24790015       0.48742735 </v>
   <v>       0.02003634       0.75138917       0.48817692 </v>
   <v>       0.47439458       0.77548849       0.48762046 </v>
   <v>       0.24074987       0.25296151       0.48533338 </v>
   <v>       0.74053880       0.24942974       0.49052333 </v>
   <v>       0.23021083       0.74966884       0.48867854 </v>
   <v>       0.77089357       0.73861708       0.48732105 </v>
   <v>       0.00000000       0.00000000       0.05648431 </v>
   <v>       0.50000000       0.00000000       0.05648431 </v>
   <v>       0.00000000       0.50000000       0.05648431 </v>
   <v>       0.50000000       0.50000000       0.05648431 </v>
   <v>       0.25000000       0.00000000       0.05648431 </v>
   <v>       0.75000000       0.00000000       0.05648431 </v>
   <v>       0.25000000       0.50000000       0.05648431 </v>
   <v>       0.75000000       0.50000000       0.05648431 </v>
   <v>       0.00000000       0.25000000       0.05648431 </v>
   <v>       0.50000000       0.25000000       0.05648431 </v>
   <v>       0.00000000       0.75000000       0.05648431 </v>
   <v>       0.50000000       0.75000000       0.05648431 </v>
   <v>       0.25000000       0.25000000       0.05648431 </v>
   <v>       0.75000000       0.25000000       0.05648431 </v>
   <v>       0.25000000       0.75000000       0.05648431 </v>
   <v>       0.75000000       0.75000000       0.05648431 </v>
   <v>       0.83333331       0.83333331       0.07531242 </v>
   <v>       0.33333334       0.83333331       0.07531242 </v>
   <v>       0.83333331       0.33333334       0.07531242 </v>
   <v>       0.33333334       0.33333334       0.07531242 </v>
   <v>       0.08333334       0.83333331       0.07531242 </v>
   <v>       0.58333331       0.83333331       0.07531242 </v>
   <v>       0.08333334       0.33333334       0.07531242 </v>
   <v>       0.58333331       0.33333334       0.07531242 </v>
   <v>       0.83333331       0.08333334       0.07531242 </v>
   <v>       0.33333334       0.08333334       0.07531242 </v>
   <v>       0.83333331       0.58333331       0.07531242 </v>
   <v>       0.33333334       0.58333331       0.07531242 </v>
   <v>       0.08333334       0.08333334       0.07531242 </v>
   <v>       0.58333331       0.08333334       0.07531242 </v>
   <v>       0.08333334       0.58333331       0.07531242 </v>
   <v>       0.58333331       0.58333331       0.07531242 </v>
   <v>       0.83333331       0.83333331       0.13179672 </v>
   <v>       0.33333334       0.83333331       0.13179672 </v>
   <v>       0.83333331       0.33333334       0.13179672 </v>
   <v>       0.33333334       0.33333334       0.13179672 </v>
   <v>       0.08333334       0.83333331       0.13179672 </v>
   <v>       0.58333331       0.83333331       0.13179672 </v>
   <v>       0.08333334       0.33333334       0.13179672 </v>
   <v>       0.58333331       0.33333334       0.13179672 </v>
   <v>       0.83333331       0.08333334       0.13179672 </v>
   <v>       0.33333334       0.08333334       0.13179672 </v>
   <v>       0.83333331       0.58333331       0.13179672 </v>
   <v>       0.33333334       0.58333331       0.13179672 </v>
   <v>       0.08333334       0.08333334       0.13179672 </v>
   <v>       0.58333331       0.08333334       0.13179672 </v>
   <v>       0.08333334       0.58333331       0.13179672 </v>
   <v>       0.58333331       0.58333331       0.13179672 </v>
   <v>       0.66666669       0.66666669       0.15062483 </v>
   <v>       0.16666667       0.66666669       0.15062483 </v>
   <v>       0.66666669       0.16666667       0.15062483 </v>
   <v>       0.16666667       0.16666667       0.15062483 </v>
   <v>       0.91666669       0.66666669       0.15062483 </v>
   <v>       0.41666666       0.66666669       0.15062483 </v>
   <v>       0.91666669       0.16666667       0.15062483 </v>
   <v>       0.41666666       0.16666667       0.15062483 </v>
   <v>       0.66666669       0.91666669       0.15062483 </v>
   <v>       0.16666667       0.91666669       0.15062483 </v>
   <v>       0.66666669       0.41666666       0.15062483 </v>
   <v>       0.16666667       0.41666666       0.15062483 </v>
   <v>       0.91666669       0.91666669       0.15062483 </v>
   <v>       0.41666666       0.91666669       0.15062483 </v>
   <v>       0.91666669       0.41666666       0.15062483 </v>
   <v>       0.41666666       0.41666666       0.15062483 </v>
   <v>       0.66691256       0.66650248       0.20705401 </v>
   <v>       0.16691388       0.66649014       0.20705898 </v>
   <v>       0.66690344       0.16650572       0.20706598 </v>
   <v>       0.16684061       0.16660814       0.20708179 </v>
   <v>       0.91692531       0.66649854       0.20705918 </v>
   <v>       0.41692519       0.66647869       0.20706536 </v>
   <v>       0.91692513       0.16650243       0.20707472 </v>
   <v>       0.41696414       0.16651435       0.20706745 </v>
   <v>       0.66691798       0.91648233       0.20704251 </v>
   <v>       0.16694951       0.91644073       0.20704633 </v>
   <v>       0.66691595       0.41648963       0.20705459 </v>
   <v>       0.16692059       0.41647589       0.20705572 </v>
   <v>       0.91694874       0.91646326       0.20705239 </v>
   <v>       0.41701031       0.91640425       0.20704820 </v>
   <v>       0.91693836       0.41649175       0.20706076 </v>
   <v>       0.41692036       0.41647944       0.20706344 </v>
   <v>       0.50027961       0.49979386       0.22588077 </v>
   <v>       0.00028667       0.49982324       0.22588117 </v>
   <v>       0.50028664       0.99980050       0.22585523 </v>
   <v>       0.00032078       0.99976605       0.22586109 </v>
   <v>       0.75028151       0.49981755       0.22585415 </v>
   <v>       0.25025454       0.49979892       0.22586794 </v>
   <v>       0.75028825       0.99977207       0.22584361 </v>
   <v>       0.25032210       0.99981099       0.22577891 </v>
   <v>       0.50031888       0.74973106       0.22591362 </v>
   <v>       0.00028389       0.74979836       0.22589213 </v>
   <v>       0.50029421       0.24984773       0.22593303 </v>
   <v>       0.00016690       0.24989246       0.22594904 </v>
   <v>       0.75026935       0.74982309       0.22586657 </v>
   <v>       0.25028658       0.74977243       0.22589330 </v>
   <v>       0.75025457       0.24982803       0.22588789 </v>
   <v>       0.25034884       0.24982284       0.22589789 </v>
   <v>       0.50049311       0.49963021       0.28230625 </v>
   <v>       0.00050731       0.49968964       0.28230851 </v>
   <v>       0.50051337       0.99962586       0.28226964 </v>
   <v>       0.00059072       0.99956340       0.28227770 </v>
   <v>       0.75046229       0.49970725       0.28226706 </v>
   <v>       0.25044429       0.49965557       0.28228562 </v>
   <v>       0.75051129       0.99957675       0.28225109 </v>
   <v>       0.25060219       0.99960679       0.28215270 </v>
   <v>       0.50056702       0.74950278       0.28235546 </v>
   <v>       0.00050130       0.74963838       0.28232343 </v>
   <v>       0.50053847       0.24974354       0.28238247 </v>
   <v>       0.00022542       0.24985044       0.28240289 </v>
   <v>       0.75046211       0.74969256       0.28228702 </v>
   <v>       0.25051790       0.74957991       0.28232459 </v>
   <v>       0.75041085       0.24970731       0.28231667 </v>
   <v>       0.25066370       0.24970363       0.28232852 </v>
   <v>       0.33391163       0.33313787       0.30122887 </v>
   <v>       0.83340478       0.33325410       0.30123816 </v>
   <v>       0.33380580       0.83306384       0.30105916 </v>
   <v>       0.83384037       0.83295310       0.30113371 </v>
   <v>       0.58387220       0.33310598       0.30124070 </v>
   <v>       0.08398665       0.33295631       0.30108731 </v>
   <v>       0.58382905       0.83298177       0.30112000 </v>
   <v>       0.08388577       0.83291119       0.30115693 </v>
   <v>       0.33384538       0.58284026       0.30112975 </v>
   <v>       0.83381855       0.58302647       0.30109687 </v>
   <v>       0.33384517       0.08289958       0.30104594 </v>
   <v>       0.83388197       0.08288339       0.30102269 </v>
   <v>       0.58398402       0.58273447       0.30118588 </v>
   <v>       0.08386202       0.58297580       0.30116989 </v>
   <v>       0.58390039       0.08290785       0.30108313 </v>
   <v>       0.08406826       0.08289581       0.30098030 </v>
   <v>       0.33455058       0.33750696       0.35823896 </v>
   <v>       0.83584726       0.33108893       0.35832484 </v>
   <v>       0.33374457       0.83076898       0.36015605 </v>
   <v>       0.83795114       0.83206664       0.35755728 </v>
   <v>       0.57936716       0.34326698       0.35966164 </v>
   <v>       0.08251522       0.33488328       0.35840398 </v>
   <v>       0.58151654       0.84208700       0.35865356 </v>
   <v>       0.08377862       0.83843386       0.35805101 </v>
   <v>       0.33968314       0.58302135       0.35939469 </v>
   <v>       0.82664739       0.58688646       0.35748534 </v>
   <v>       0.32470828       0.08872857       0.35743900 </v>
   <v>       0.82955010       0.09063148       0.35827609 </v>
   <v>       0.58443164       0.58811157       0.35947312 </v>
   <v>       0.08180235       0.58721522       0.35640476 </v>
   <v>       0.58417803       0.08368903       0.35774930 </v>
   <v>       0.07880775       0.08304709       0.35912003 </v>
   <v>       0.15739136       0.17389632       0.37633080 </v>
   <v>       0.66350353       0.17023489       0.37684715 </v>
   <v>       0.16738634       0.66944086       0.37255081 </v>
   <v>       0.66430812       0.67485447       0.37833701 </v>
   <v>       0.41647808       0.16335051       0.37461316 </v>
   <v>       0.91263222       0.16904331       0.38040485 </v>
   <v>       0.42190785       0.66537446       0.37983974 </v>
   <v>       0.91612028       0.66600510       0.37622347 </v>
   <v>       0.16891300       0.42355953       0.37669777 </v>
   <v>       0.66951949       0.41759611       0.37831363 </v>
   <v>       0.16671652       0.92195784       0.38132868 </v>
   <v>       0.67168308       0.91398559       0.37745823 </v>
   <v>       0.41188057       0.42312019       0.37960332 </v>
   <v>       0.91052689       0.41880123       0.37585347 </v>
   <v>       0.41221080       0.92341936       0.37561849 </v>
   <v>       0.91631337       0.92223309       0.37694823 </v>
   <v>       0.16425402       0.16749221       0.43273430 </v>
   <v>       0.66178176       0.16478162       0.43441859 </v>
   <v>       0.16524508       0.66948309       0.42921043 </v>
   <v>       0.67025318       0.66167361       0.43570778 </v>
   <v>       0.41357303       0.17346220       0.42990860 </v>
   <v>       0.91148071       0.17017397       0.43577792 </v>
   <v>       0.41328413       0.67183411       0.43645847 </v>
   <v>       0.92006283       0.67156963       0.43307039 </v>
   <v>       0.16541835       0.41482884       0.43364523 </v>
   <v>       0.65824929       0.41909729       0.43546656 </v>
   <v>       0.15560568       0.92506317       0.43711085 </v>
   <v>       0.66322044       0.91434854       0.43423031 </v>
   <v>       0.41531508       0.42247045       0.43747617 </v>
   <v>       0.91166563       0.42286042       0.43199833 </v>
   <v>       0.41066252       0.92200606       0.43202947 </v>
   <v>       0.91020483       0.92096694       0.43456244 </v>
   <v>       0.99175482       0.00681161       0.45541733 </v>
   <v>       0.49362051       0.00854039       0.45042440 </v>
   <v>       0.99307498       0.50308845       0.45029971 </v>
   <v>       0.49358441       0.50900846       0.46455866 </v>
   <v>       0.24965262       0.00163427       0.45315131 </v>
   <v>       0.74558254       0.99638520       0.45319508 </v>
   <v>       0.24170754       0.50599084       0.44939327 </v>
   <v>       0.75163781       0.49526605       0.45349939 </v>
   <v>       0.00526966       0.25287686       0.45120635 </v>
   <v>       0.49374221       0.25409572       0.45158934 </v>
   <v>       0.00144244       0.75515303       0.45229316 </v>
   <v>       0.49513869       0.75740734       0.45217851 </v>
   <v>       0.25069611       0.24471630       0.44928918 </v>
   <v>       0.74228580       0.25250873       0.45387868 </v>
   <v>       0.24420145       0.75327932       0.45221132 </v>
   <v>       0.75570682       0.74583907       0.45100021 </v>
  </varray>
  <varray name="selective"  type="logical" >
   <v type="logical" >  T  T  T </v>
   <v type="logical" >  T  T  T </v>
   <v type="logical" >  T  T  T </v>
   <v type="logical" >  T  T  T </v>
   <v type="logical" >  T  T  T </v>
   <v type="logical" >  T  T  T </v>
   <v type="logical" >  T  T  T </v>
   <v type="logical" >  T  T  T </v>
   <v type="logical" >  T  T  T </v>
   <v type="logical" >  T  T  T </v>
   <v type="logical" >  T  T  T </v>
   <v type="logical" >  T  T  T </v>
   <v type="logical" >  T  T  T </v>
   <v type="logical" >  T  T  T </v>
   <v type="logical" >  T  T  T </v>
   <v type="logical" >  T  T  T </v>
   <v type="logical" >  T  T  T </v>
   <v type="logical" >  T  T  T </v>
   <v type="logical" >  T  T  T </v>
   <v type="logical" >  T  T  T </v>
   <v type="logical" >  T  T  T </v>
   <v type="logical" >  T  T  T </v>
   <v type="logical" >  T  T  T </v>
   <v type="logical" >  T  T  T </v>
   <v type="logical" >  T  T  T </v>
   <v type="logical" >  T  T  T </v>
   <v type="logical" >  T  T  T </v>
   <v type="logical" >  T  T  T </v>
   <v type="logical" >  T  T  T </v>
   <v type="logical" >  T  T  T </v>
   <v type="logical" >  T  T  T </v>
   <v type="logical" >  T  T  T </v>
   <v type="logical" >  T  T  T </v>
   <v type="logical" >  T  T  T </v>
   <v type="logical" >  T  T  T </v>
   <v type="logical" >  T  T  T </v>
   <v type="logical" >  T  T  T </v>
   <v type="logical" >  T  T  T </v>
   <v type="logical" >  T  T  T </v>
   <v type="logical" >  T  T  T </v>
   <v type="logical" >  T  T  T </v>
   <v type="logical" >  T  T  T </v>
   <v type="logical" >  T  T  T </v>
   <v type="logical" >  T  T  T </v>
   <v type="logical" >  T  T  T </v>
   <v type="logical" >  T  T  T </v>
   <v type="logical" >  T  T  T </v>
   <v type="logical" >  T  T  T </v>
   <v type="logical" >  T  T  T </v>
   <v type="logical" >  T  T  T </v>
   <v type="logical" >  T  T  T </v>
   <v type="logical" >  T  T  T </v>
   <v type="logical" >  T  T  T </v>
   <v type="logical" >  T  T  T </v>
   <v type="logical" >  F  F  F </v>
   <v type="logical" >  F  F  F </v>
   <v type="logical" >  F  F  F </v>
   <v type="logical" >  F  F  F </v>
   <v type="logical" >  F  F  F </v>
   <v type="logical" >  F  F  F </v>
   <v type="logical" >  F  F  F </v>
   <v type="logical" >  F  F  F </v>
   <v type="logical" >  F  F  F </v>
   <v type="logical" >  F  F  F </v>
   <v type="logical" >  F  F  F </v>
   <v type="logical" >  F  F  F </v>
   <v type="logical" >  F  F  F </v>
   <v type="logical" >  F  F  F </v>
   <v type="logical" >  F  F  F </v>
   <v type="logical" >  F  F  F </v>
   <v type="logical" >  F  F  F </v>
   <v type="logical" >  F  F  F </v>
   <v type="logical" >  F  F  F </v>
   <v type="logical" >  F  F  F </v>
   <v type="logical" >  F  F  F </v>
   <v type="logical" >  F  F  F </v>
   <v type="logical" >  F  F  F </v>
   <v type="logical" >  F  F  F </v>
   <v type="logical" >  F  F  F </v>
   <v type="logical" >  F  F  F </v>
   <v type="logical" >  F  F  F </v>
   <v type="logical" >  F  F  F </v>
   <v type="logical" >  F  F  F </v>
   <v type="logical" >  F  F  F </v>
   <v type="logical" >  F  F  F </v>
   <v type="logical" >  F  F  F </v>
   <v type="logical" >  F  F  F </v>
   <v type="logical" >  F  F  F </v>
   <v type="logical" >  F  F  F </v>
   <v type="logical" >  F  F  F </v>
   <v type="logical" >  F  F  F </v>
   <v type="logical" >  F  F  F </v>
   <v type="logical" >  F  F  F </v>
   <v type="logical" >  F  F  F </v>
   <v type="logical" >  F  F  F </v>
   <v type="logical" >  F  F  F </v>
   <v type="logical" >  F  F  F </v>
   <v type="logical" >  F  F  F </v>
   <v type="logical" >  F  F  F </v>
   <v type="logical" >  F  F  F </v>
   <v type="logical" >  F  F  F </v>
   <v type="logical" >  F  F  F </v>
   <v type="logical" >  F  F  F </v>
   <v type="logical" >  F  F  F </v>
   <v type="logical" >  F  F  F </v>
   <v type="logical" >  F  F  F </v>
   <v type="logical" >  F  F  F </v>
   <v type="logical" >  F  F  F </v>
   <v type="logical" >  F  F  F </v>
   <v type="logical" >  F  F  F </v>
   <v type="logical" >  F  F  F </v>
   <v type="logical" >  F  F  F </v>
   <v type="logical" >  F  F  F </v>
   <v type="logical" >  F  F  F </v>
   <v type="logical" >  F  F  F </v>
   <v type="logical" >  F  F  F </v>
   <v type="logical" >  F  F  F </v>
   <v type="logical" >  F  F  F </v>
   <v type="logical" >  F  F  F </v>
   <v type="logical" >  F  F  F </v>
   <v type="logical" >  F  F  F </v>
   <v type="logical" >  F  F  F </v>
   <v type="logical" >  F  F  F </v>
   <v type="logical" >  F  F  F </v>
   <v type="logical" >  F  F  F </v>
   <v type="logical" >  F  F  F </v>
   <v type="logical" >  F  F  F </v>
   <v type="logical" >  F  F  F </v>
   <v type="logical" >  F  F  F </v>
   <v type="logical" >  F  F  F </v>
   <v type="logical" >  F  F  F </v>
   <v type="logical" >  F  F  F </v>
   <v type="logical" >  F  F  F </v>
   <v type="logical" >  F  F  F </v>
   <v type="logical" >  F  F  F </v>
   <v type="logical" >  F  F  F </v>
   <v type="logical" >  F  F  F </v>
   <v type="logical" >  F  F  F </v>
   <v type="logical" >  F  F  F </v>
   <v type="logical" >  F  F  F </v>
   <v type="logical" >  F  F  F </v>
   <v type="logical" >  F  F  F </v>
   <v type="logical" >  F  F  F </v>
   <v type="logical" >  F  F  F </v>
   <v type="logical" >  F  F  F </v>
   <v type="logical" >  F  F  F </v>
   <v type="logical" >  F  F  F </v>
   <v type="logical" >  F  F  F </v>
   <v type="logical" >  F  F  F </v>
   <v type="logical" >  F  F  F </v>
   <v type="logical" >  F  F  F </v>
   <v type="logical" >  F  F  F </v>
   <v type="logical" >  F  F  F </v>
   <v type="logical" >  F  F  F </v>
   <v type="logical" >  F  F  F </v>
   <v type="logical" >  F  F  F </v>
   <v type="logical" >  F  F  F </v>
   <v type="logical" >  F  F  F </v>
   <v type="logical" >  F  F  F </v>
   <v type="logical" >  F  F  F </v>
   <v type="logical" >  F  F  F </v>
   <v type="logical" >  F  F  F </v>
   <v type="logical" >  F  F  F </v>
   <v type="logical" >  F  F  F </v>
   <v type="logical" >  F  F  F </v>
   <v type="logical" >  F  F  F </v>
   <v type="logical" >  F  F  F </v>
   <v type="logical" >  F  F  F </v>
   <v type="logical" >  F  F  F </v>
   <v type="logical" >  F  F  F </v>
   <v type="logical" >  F  F  F </v>
   <v type="logical" >  F  F  F </v>
   <v type="logical" >  F  F  F </v>
   <v type="logical" >  F  F  F </v>
   <v type="logical" >  F  F  F </v>
   <v type="logical" >  F  F  F </v>
   <v type="logical" >  F  F  F </v>
   <v type="logical" >  F  F  F </v>
   <v type="logical" >  F  F  F </v>
   <v type="logical" >  F  F  F </v>
   <v type="logical" >  F  F  F </v>
   <v type="logical" >  F  F  F </v>
   <v type="logical" >  T  T  T </v>
   <v type="logical" >  T  T  T </v>
   <v type="logical" >  T  T  T </v>
   <v type="logical" >  T  T  T </v>
   <v type="logical" >  T  T  T </v>
   <v type="logical" >  T  T  T </v>
   <v type="logical" >  T  T  T </v>
   <v type="logical" >  T  T  T </v>
   <v type="logical" >  T  T  T </v>
   <v type="logical" >  T  T  T </v>
   <v type="logical" >  T  T  T </v>
   <v type="logical" >  T  T  T </v>
   <v type="logical" >  T  T  T </v>
   <v type="logical" >  T  T  T </v>
   <v type="logical" >  T  T  T </v>
   <v type="logical" >  T  T  T </v>
   <v type="logical" >  T  T  T </v>
   <v type="logical" >  T  T  T </v>
   <v type="logical" >  T  T  T </v>
   <v type="logical" >  T  T  T </v>
   <v type="logical" >  T  T  T </v>
   <v type="logical" >  T  T  T </v>
   <v type="logical" >  T  T  T </v>
   <v type="logical" >  T  T  T </v>
   <v type="logical" >  T  T  T </v>
   <v type="logical" >  T  T  T </v>
   <v type="logical" >  T  T  T </v>
   <v type="logical" >  T  T  T </v>
   <v type="logical" >  T  T  T </v>
   <v type="logical" >  T  T  T </v>
   <v type="logical" >  T  T  T </v>
   <v type="logical" >  T  T  T </v>
   <v type="logical" >  T  T  T </v>
   <v type="logical" >  T  T  T </v>
   <v type="logical" >  T  T  T </v>
   <v type="logical" >  T  T  T </v>
   <v type="logical" >  T  T  T </v>
   <v type="logical" >  T  T  T </v>
   <v type="logical" >  T  T  T </v>
   <v type="logical" >  T  T  T </v>
   <v type="logical" >  T  T  T </v>
   <v type="logical" >  T  T  T </v>
   <v type="logical" >  T  T  T </v>
   <v type="logical" >  T  T  T </v>
   <v type="logical" >  T  T  T </v>
   <v type="logical" >  T  T  T </v>
   <v type="logical" >  T  T  T </v>
   <v type="logical" >  T  T  T </v>
   <v type="logical" >  T  T  T </v>
   <v type="logical" >  T  T  T </v>
   <v type="logical" >  T  T  T </v>
   <v type="logical" >  T  T  T </v>
   <v type="logical" >  T  T  T </v>
   <v type="logical" >  T  T  T </v>
   <v type="logical" >  T  T  T </v>
   <v type="logical" >  T  T  T </v>
   <v type="logical" >  T  T  T </v>
   <v type="logical" >  T  T  T </v>
   <v type="logical" >  T  T  T </v>
   <v type="logical" >  T  T  T </v>
   <v type="logical" >  T  T  T </v>
   <v type="logical" >  T  T  T </v>
   <v type="logical" >  T  T  T </v>
   <v type="logical" >  T  T  T </v>
  </varray>
  <varray name="velocities" >
   <v>       0.00014656       0.00039113       0.00003179 </v>
   <v>      -0.00047315       0.00044186       0.00001805 </v>
   <v>       0.00010417       0.00008998       0.00001897 </v>
   <v>      -0.00005136       0.00029305      -0.00011605 </v>
   <v>       0.00003013       0.00018387       0.00009600 </v>
   <v>      -0.00033060       0.00037441       0.00019509 </v>
   <v>       0.00015434      -0.00022828       0.00008870 </v>
   <v>      -0.00019411       0.00034234       0.00002375 </v>
   <v>       0.00046768      -0.00021574      -0.00004806 </v>
   <v>       0.00019189      -0.00032345       0.00017335 </v>
   <v>       0.00007052      -0.00028450      -0.00006837 </v>
   <v>      -0.00018372      -0.00010820      -0.00012511 </v>
   <v>       0.00008209       0.00006886      -0.00009998 </v>
   <v>       0.00007105       0.00009130      -0.00005825 </v>
   <v>       0.00097862      -0.00065379      -0.00001191 </v>
[...]
   <v type="logical" >  F  F  F </v>
   <v type="logical" >  F  F  F </v>
   <v type="logical" >  F  F  F </v>
   <v type="logical" >  F  F  F </v>
   <v type="logical" >  F  F  F </v>
   <v type="logical" >  F  F  F </v>
   <v type="logical" >  F  F  F </v>
   <v type="logical" >  F  F  F </v>
   <v type="logical" >  F  F  F </v>
   <v type="logical" >  F  F  F </v>
   <v type="logical" >  F  F  F </v>
   <v type="logical" >  F  F  F </v>
   <v type="logical" >  F  F  F </v>
   <v type="logical" >  F  F  F </v>
   <v type="logical" >  F  F  F </v>
   <v type="logical" >  F  F  F </v>
   <v type="logical" >  F  F  F </v>
   <v type="logical" >  F  F  F </v>
   <v type="logical" >  F  F  F </v>
   <v type="logical" >  F  F  F </v>
   <v type="logical" >  F  F  F </v>
   <v type="logical" >  F  F  F </v>
   <v type="logical" >  F  F  F </v>
   <v type="logical" >  F  F  F </v>
   <v type="logical" >  F  F  F </v>
   <v type="logical" >  F  F  F </v>
   <v type="logical" >  F  F  F </v>
   <v type="logical" >  F  F  F </v>
   <v type="logical" >  F  F  F </v>
   <v type="logical" >  F  F  F </v>
   <v type="logical" >  F  F  F </v>
   <v type="logical" >  F  F  F </v>
   <v type="logical" >  F  F  F </v>
   <v type="logical" >  F  F  F </v>
   <v type="logical" >  F  F  F </v>
   <v type="logical" >  F  F  F </v>
   <v type="logical" >  F  F  F </v>
   <v type="logical" >  F  F  F </v>
   <v type="logical" >  F  F  F </v>
   <v type="logical" >  F  F  F </v>
   <v type="logical" >  F  F  F </v>
   <v type="logical" >  F  F  F </v>
   <v type="logical" >  F  F  F </v>
   <v type="logical" >  F  F  F </v>
   <v type="logical" >  F  F  F </v>
   <v type="logical" >  F  F  F </v>
   <v type="logical" >  F  F  F </v>
   <v type="logical" >  F  F  F </v>
   <v type="logical" >  F  F  F </v>
   <v type="logical" >  F  F  F </v>
   <v type="logical" >  F  F  F </v>
   <v type="logical" >  F  F  F </v>
   <v type="logical" >  T  T  T </v>
   <v type="logical" >  T  T  T </v>
   <v type="logical" >  T  T  T </v>
   <v type="logical" >  T  T  T </v>
   <v type="logical" >  T  T  T </v>
   <v type="logical" >  T  T  T </v>
   <v type="logical" >  T  T  T </v>
   <v type="logical" >  T  T  T </v>
   <v type="logical" >  T  T  T </v>
   <v type="logical" >  T  T  T </v>
   <v type="logical" >  T  T  T </v>
   <v type="logical" >  T  T  T </v>
   <v type="logical" >  T  T  T </v>
   <v type="logical" >  T  T  T </v>
   <v type="logical" >  T  T  T </v>
   <v type="logical" >  T  T  T </v>
   <v type="logical" >  T  T  T </v>
   <v type="logical" >  T  T  T </v>
   <v type="logical" >  T  T  T </v>
   <v type="logical" >  T  T  T </v>
   <v type="logical" >  T  T  T </v>
   <v type="logical" >  T  T  T </v>
   <v type="logical" >  T  T  T </v>
   <v type="logical" >  T  T  T </v>
   <v type="logical" >  T  T  T </v>
   <v type="logical" >  T  T  T </v>
   <v type="logical" >  T  T  T </v>
   <v type="logical" >  T  T  T </v>
   <v type="logical" >  T  T  T </v>
   <v type="logical" >  T  T  T </v>
   <v type="logical" >  T  T  T </v>
   <v type="logical" >  T  T  T </v>
   <v type="logical" >  T  T  T </v>
   <v type="logical" >  T  T  T </v>
   <v type="logical" >  T  T  T </v>
   <v type="logical" >  T  T  T </v>
   <v type="logical" >  T  T  T </v>
   <v type="logical" >  T  T  T </v>
   <v type="logical" >  T  T  T </v>
   <v type="logical" >  T  T  T </v>
   <v type="logical" >  T  T  T </v>
   <v type="logical" >  T  T  T </v>
   <v type="logical" >  T  T  T </v>
   <v type="logical" >  T  T  T </v>
   <v type="logical" >  T  T  T </v>
   <v type="logical" >  T  T  T </v>
   <v type="logical" >  T  T  T </v>
   <v type="logical" >  T  T  T </v>
   <v type="logical" >  T  T  T </v>
   <v type="logical" >  T  T  T </v>
   <v type="logical" >  T  T  T </v>
   <v type="logical" >  T  T  T </v>
   <v type="logical" >  T  T  T </v>
   <v type="logical" >  T  T  T </v>
   <v type="logical" >  T  T  T </v>
   <v type="logical" >  T  T  T </v>
   <v type="logical" >  T  T  T </v>
   <v type="logical" >  T  T  T </v>
   <v type="logical" >  T  T  T </v>
   <v type="logical" >  T  T  T </v>
   <v type="logical" >  T  T  T </v>
   <v type="logical" >  T  T  T </v>
   <v type="logical" >  T  T  T </v>
   <v type="logical" >  T  T  T </v>
  </varray>
  <varray name="velocities" >
   <v>      -0.00003291      -0.00050951       0.00003737 </v>
   <v>      -0.00030575       0.00002210      -0.00012148 </v>
   <v>      -0.00009219       0.00006841      -0.00000763 </v>
   <v>       0.00011112       0.00008893       0.00003461 </v>
   <v>      -0.00004593      -0.00009801      -0.00007764 </v>
   <v>      -0.00016086      -0.00015891       0.00012868 </v>
   <v>      -0.00001891       0.00018775      -0.00002339 </v>
   <v>       0.00034978      -0.00032859      -0.00002934 </v>
   <v>      -0.00022699       0.00021324      -0.00003369 </v>
   <v>       0.00004426       0.00000377      -0.00009680 </v>
   <v>       0.00034172      -0.00010259      -0.00006141 </v>
   <v>      -0.00036943       0.00037830      -0.00004946 </v>
   <v>       0.00032137      -0.00021130       0.00002766 </v>
   <v>       0.00020155      -0.00044060      -0.00002759 </v>
   <v>      -0.00055866       0.00075005       0.00023407 </v>
   <v>      -0.00089917       0.00024496       0.00023043 </v>
   <v>      -0.00063513      -0.00006767       0.00000280 </v>
   <v>       0.00054659      -0.00067943       0.00010107 </v>
   <v>      -0.00085987      -0.00014426      -0.00029969 </v>
   <v>       0.00043993      -0.00044780       0.00013404 </v>
   <v>       0.00042607       0.00028061      -0.00034890 </v>
   <v>      -0.00150664       0.00145455       0.00017044 </v>
   <v>      -0.00063426       0.00267575       0.00017234 </v>
   <v>       0.00004705      -0.00021810       0.00013674 </v>
   <v>       0.00037547      -0.00043035       0.00015728 </v>
   <v>       0.00014217      -0.00004847      -0.00062704 </v>
   <v>      -0.00038565       0.00034046       0.00060494 </v>
   <v>      -0.00029442       0.00058647       0.00040515 </v>
   <v>      -0.00032391       0.00037010       0.00037170 </v>
   <v>       0.00016354      -0.00040982       0.00007199 </v>
   <v>      -0.00024081      -0.00016955      -0.00010518 </v>
   <v>      -0.00010631      -0.00039637      -0.00019618 </v>
   <v>       0.00048066       0.00049930      -0.00071196 </v>
   <v>       0.00042073      -0.00026365      -0.00027544 </v>
   <v>      -0.00021115       0.00035398       0.00005344 </v>
   <v>       0.00007024      -0.00015224       0.00005389 </v>
   <v>       0.00027125      -0.00006178       0.00002504 </v>
   <v>      -0.00053799       0.00023031       0.00045024 </v>
   <v>       0.00094827      -0.00028428      -0.00013621 </v>
   <v>       0.00051552      -0.00183376       0.00014391 </v>
   <v>      -0.00158836      -0.00012516      -0.00023691 </v>
   <v>       0.00050568      -0.00011924       0.00011796 </v>
   <v>       0.00021380      -0.00014112      -0.00003919 </v>
   <v>      -0.00178779       0.00188087       0.00008184 </v>
   <v>      -0.00217393       0.00161713       0.00042595 </v>
   <v>      -0.00029675      -0.00039960       0.00002227 </v>
   <v>      -0.00103848       0.00044769      -0.00036189 </v>
   <v>       0.00193659      -0.00001389      -0.00007341 </v>
   <v>       0.00193791       0.00000171       0.00003118 </v>
   <v>       0.00064350      -0.00083543       0.00005062 </v>
   <v>      -0.00185125       0.00144976       0.00003491 </v>
   <v>      -0.00011983      -0.00032697      -0.00030900 </v>
   <v>      -0.00114642       0.00032055      -0.00022032 </v>
   <v>       0.00034185      -0.00034375      -0.00008414 </v>
   <v>       0.00000000       0.00000000       0.00000000 </v>
   <v>       0.00000000       0.00000000       0.00000000 </v>
   <v>       0.00000000       0.00000000       0.00000000 </v>
   <v>       0.00000000       0.00000000       0.00000000 </v>
   <v>       0.00000000       0.00000000       0.00000000 </v>
   <v>       0.00000000       0.00000000       0.00000000 </v>
   <v>       0.00000000       0.00000000       0.00000000 </v>
   <v>       0.00000000       0.00000000       0.00000000 </v>
   <v>       0.00000000       0.00000000       0.00000000 </v>
   <v>       0.00000000       0.00000000       0.00000000 </v>
   <v>       0.00000000       0.00000000       0.00000000 </v>
   <v>       0.00000000       0.00000000       0.00000000 </v>
   <v>       0.00000000       0.00000000       0.00000000 </v>
   <v>       0.00000000       0.00000000       0.00000000 </v>
   <v>       0.00000000       0.00000000       0.00000000 </v>
   <v>       0.00000000       0.00000000       0.00000000 </v>
   <v>       0.00000000       0.00000000       0.00000000 </v>
   <v>       0.00000000       0.00000000       0.00000000 </v>
   <v>       0.00000000       0.00000000       0.00000000 </v>
   <v>       0.00000000       0.00000000       0.00000000 </v>
   <v>       0.00000000       0.00000000       0.00000000 </v>
   <v>       0.00000000       0.00000000       0.00000000 </v>
   <v>       0.00000000       0.00000000       0.00000000 </v>
   <v>       0.00000000       0.00000000       0.00000000 </v>
   <v>       0.00000000       0.00000000       0.00000000 </v>
   <v>       0.00000000       0.00000000       0.00000000 </v>
   <v>       0.00000000       0.00000000       0.00000000 </v>
   <v>       0.00000000       0.00000000       0.00000000 </v>
   <v>       0.00000000       0.00000000       0.00000000 </v>
   <v>       0.00000000       0.00000000       0.00000000 </v>
   <v>       0.00000000       0.00000000       0.00000000 </v>
   <v>       0.00000000       0.00000000       0.00000000 </v>
   <v>       0.00000000       0.00000000       0.00000000 </v>
   <v>       0.00000000       0.00000000       0.00000000 </v>
   <v>       0.00000000       0.00000000       0.00000000 </v>
   <v>       0.00000000       0.00000000       0.00000000 </v>
   <v>       0.00000000       0.00000000       0.00000000 </v>
   <v>       0.00000000       0.00000000       0.00000000 </v>
   <v>       0.00000000       0.00000000       0.00000000 </v>
   <v>       0.00000000       0.00000000       0.00000000 </v>
   <v>       0.00000000       0.00000000       0.00000000 </v>
   <v>       0.00000000       0.00000000       0.00000000 </v>
   <v>       0.00000000       0.00000000       0.00000000 </v>
   <v>       0.00000000       0.00000000       0.00000000 </v>
   <v>       0.00000000       0.00000000       0.00000000 </v>
   <v>       0.00000000       0.00000000       0.00000000 </v>
   <v>       0.00000000       0.00000000       0.00000000 </v>
   <v>       0.00000000       0.00000000       0.00000000 </v>
   <v>       0.00000000       0.00000000       0.00000000 </v>
   <v>       0.00000000       0.00000000       0.00000000 </v>
   <v>       0.00000000       0.00000000       0.00000000 </v>
   <v>       0.00000000       0.00000000       0.00000000 </v>
   <v>       0.00000000       0.00000000       0.00000000 </v>
   <v>       0.00000000       0.00000000       0.00000000 </v>
   <v>       0.00000000       0.00000000       0.00000000 </v>
   <v>       0.00000000       0.00000000       0.00000000 </v>
   <v>       0.00000000       0.00000000       0.00000000 </v>
   <v>       0.00000000       0.00000000       0.00000000 </v>
   <v>       0.00000000       0.00000000       0.00000000 </v>
   <v>       0.00000000       0.00000000       0.00000000 </v>
   <v>       0.00000000       0.00000000       0.00000000 </v>
   <v>       0.00000000       0.00000000       0.00000000 </v>
   <v>       0.00000000       0.00000000       0.00000000 </v>
   <v>       0.00000000       0.00000000       0.00000000 </v>
   <v>       0.00000000       0.00000000       0.00000000 </v>
   <v>       0.00000000       0.00000000       0.00000000 </v>
   <v>       0.00000000       0.00000000       0.00000000 </v>
   <v>       0.00000000       0.00000000       0.00000000 </v>
   <v>       0.00000000       0.00000000       0.00000000 </v>
   <v>       0.00000000       0.00000000       0.00000000 </v>
   <v>       0.00000000       0.00000000       0.00000000 </v>
   <v>       0.00000000       0.00000000       0.00000000 </v>
   <v>       0.00000000       0.00000000       0.00000000 </v>
   <v>       0.00000000       0.00000000       0.00000000 </v>
   <v>       0.00000000       0.00000000       0.00000000 </v>
   <v>       0.00000000       0.00000000       0.00000000 </v>
   <v>       0.00000000       0.00000000       0.00000000 </v>
   <v>       0.00000000       0.00000000       0.00000000 </v>
   <v>       0.00000000       0.00000000       0.00000000 </v>
   <v>       0.00000000       0.00000000       0.00000000 </v>
   <v>       0.00000000       0.00000000       0.00000000 </v>
   <v>       0.00000000       0.00000000       0.00000000 </v>
   <v>       0.00000000       0.00000000       0.00000000 </v>
   <v>       0.00000000       0.00000000       0.00000000 </v>
   <v>       0.00000000       0.00000000       0.00000000 </v>
   <v>       0.00000000       0.00000000       0.00000000 </v>
   <v>       0.00000000       0.00000000       0.00000000 </v>
   <v>       0.00000000       0.00000000       0.00000000 </v>
   <v>       0.00000000       0.00000000       0.00000000 </v>
   <v>       0.00000000       0.00000000       0.00000000 </v>
   <v>       0.00000000       0.00000000       0.00000000 </v>
   <v>       0.00000000       0.00000000       0.00000000 </v>
   <v>       0.00000000       0.00000000       0.00000000 </v>
   <v>       0.00000000       0.00000000       0.00000000 </v>
   <v>       0.00000000       0.00000000       0.00000000 </v>
   <v>       0.00000000       0.00000000       0.00000000 </v>
   <v>       0.00000000       0.00000000       0.00000000 </v>
   <v>       0.00000000       0.00000000       0.00000000 </v>
   <v>       0.00000000       0.00000000       0.00000000 </v>
   <v>       0.00000000       0.00000000       0.00000000 </v>
   <v>       0.00000000       0.00000000       0.00000000 </v>
   <v>       0.00000000       0.00000000       0.00000000 </v>
   <v>       0.00000000       0.00000000       0.00000000 </v>
   <v>       0.00000000       0.00000000       0.00000000 </v>
   <v>       0.00000000       0.00000000       0.00000000 </v>
   <v>       0.00000000       0.00000000       0.00000000 </v>
   <v>       0.00000000       0.00000000       0.00000000 </v>
   <v>       0.00000000       0.00000000       0.00000000 </v>
   <v>       0.00000000       0.00000000       0.00000000 </v>
   <v>       0.00000000       0.00000000       0.00000000 </v>
   <v>       0.00000000       0.00000000       0.00000000 </v>
   <v>       0.00000000       0.00000000       0.00000000 </v>
   <v>       0.00000000       0.00000000       0.00000000 </v>
   <v>       0.00000000       0.00000000       0.00000000 </v>
   <v>       0.00000000       0.00000000       0.00000000 </v>
   <v>       0.00000000       0.00000000       0.00000000 </v>
   <v>       0.00000000       0.00000000       0.00000000 </v>
   <v>       0.00000000       0.00000000       0.00000000 </v>
   <v>       0.00000000       0.00000000       0.00000000 </v>
   <v>       0.00000000       0.00000000       0.00000000 </v>
   <v>       0.00000000       0.00000000       0.00000000 </v>
   <v>       0.00000000       0.00000000       0.00000000 </v>
   <v>       0.00000000       0.00000000       0.00000000 </v>
   <v>       0.00000000       0.00000000       0.00000000 </v>
   <v>       0.00000000       0.00000000       0.00000000 </v>
   <v>       0.00000000       0.00000000       0.00000000 </v>
   <v>       0.00000000       0.00000000       0.00000000 </v>
   <v>       0.00000000       0.00000000       0.00000000 </v>
   <v>      -0.00002191      -0.00006363      -0.00007972 </v>
   <v>      -0.00007501       0.00001361      -0.00011994 </v>
   <v>      -0.00007082       0.00012580       0.00001111 </v>
   <v>      -0.00003151      -0.00007760      -0.00003073 </v>
   <v>      -0.00017853       0.00016980       0.00002466 </v>
   <v>       0.00004736       0.00007220       0.00005117 </v>
   <v>       0.00016496      -0.00013900      -0.00008579 </v>
   <v>       0.00003961      -0.00033723       0.00003671 </v>
   <v>       0.00006995       0.00000782      -0.00003659 </v>
   <v>      -0.00003075      -0.00012619      -0.00004462 </v>
   <v>      -0.00004658      -0.00011619      -0.00000462 </v>
   <v>       0.00004786       0.00015366      -0.00002503 </v>
   <v>       0.00004015      -0.00000908      -0.00000649 </v>
   <v>      -0.00015343       0.00009207      -0.00001218 </v>
   <v>      -0.00001363       0.00000986      -0.00002113 </v>
   <v>       0.00015976       0.00007261       0.00002780 </v>
   <v>      -0.00003672       0.00003076       0.00010816 </v>
   <v>      -0.00005903      -0.00002737      -0.00002378 </v>
   <v>      -0.00001126      -0.00012968       0.00005171 </v>
   <v>       0.00000498      -0.00013106      -0.00001334 </v>
   <v>      -0.00008418      -0.00010457       0.00002617 </v>
   <v>       0.00023071      -0.00002603      -0.00004890 </v>
   <v>      -0.00006309       0.00006407      -0.00002219 </v>
   <v>      -0.00032954      -0.00001911      -0.00000238 </v>
   <v>       0.00009638      -0.00000190       0.00002635 </v>
   <v>       0.00007214      -0.00004819      -0.00001964 </v>
   <v>      -0.00007869      -0.00015239      -0.00005286 </v>
   <v>       0.00005004      -0.00006898       0.00001814 </v>
   <v>       0.00012449      -0.00009788       0.00005946 </v>
   <v>      -0.00019418      -0.00003651      -0.00000998 </v>
   <v>       0.00011534      -0.00025404       0.00003228 </v>
   <v>       0.00005851      -0.00005016       0.00001654 </v>
   <v>       0.00008483      -0.00010887      -0.00003790 </v>
   <v>      -0.00003434       0.00022629      -0.00002846 </v>
   <v>      -0.00000891      -0.00006424       0.00003373 </v>
   <v>      -0.00025579       0.00014088      -0.00005805 </v>
   <v>      -0.00012979       0.00008174       0.00002383 </v>
   <v>       0.00021904      -0.00009886      -0.00004043 </v>
   <v>      -0.00033381       0.00022624      -0.00003196 </v>
   <v>      -0.00003109      -0.00001507       0.00000706 </v>
   <v>      -0.00000010       0.00007410      -0.00006182 </v>
   <v>       0.00026772      -0.00012931      -0.00003269 </v>
   <v>       0.00026187      -0.00015078      -0.00004365 </v>
   <v>      -0.00023823       0.00030072      -0.00006098 </v>
   <v>       0.00005454       0.00010906      -0.00008653 </v>
   <v>      -0.00024405      -0.00007493      -0.00008355 </v>
   <v>       0.00008630      -0.00021346      -0.00005751 </v>
   <v>       0.00005711       0.00004048      -0.00007538 </v>
   <v>       0.00015686      -0.00005210      -0.00009002 </v>
   <v>       0.00010236      -0.00014069      -0.00001626 </v>
   <v>       0.00034644      -0.00022670      -0.00007117 </v>
   <v>       0.00004779      -0.00006600      -0.00016199 </v>
   <v>       0.00001363       0.00007816      -0.00019972 </v>
   <v>       0.00017895       0.00000693      -0.00002646 </v>
   <v>       0.00019316      -0.00003122       0.00000402 </v>
   <v>      -0.00008282       0.00016427       0.00003257 </v>
   <v>      -0.00003651       0.00015745      -0.00009208 </v>
   <v>       0.00000587      -0.00000329       0.00000077 </v>
   <v>       0.00005501      -0.00015657       0.00000843 </v>
   <v>       0.00046604      -0.00025327      -0.00001269 </v>
   <v>       0.00014403       0.00014319       0.00011202 </v>
   <v>       0.00015154      -0.00007665      -0.00009730 </v>
   <v>       0.00004135      -0.00006847      -0.00001544 </v>
   <v>      -0.00036918       0.00014584      -0.00000880 </v>
  </varray>
  <nose>
   <v>      -1.00000000       0.00000000     300.00000000     300.00000000 </v>
  </nose>
 </structure>
</modeling>
