<?xml version="1.0" encoding="ISO-8859-1"?>
<modeling>
 <generator>
  <i name="program" type="string">vasp </i>
  <i name="version" type="string">6.4.2  </i>
  <i name="subversion" type="string">20Jul23 (build Mar 19 2024 13:39:35) complex                          parallel </i>
  <i name="platform" type="string">LinuxIFC </i>
  <i name="date" type="string">2025 01 22 </i>
  <i name="time" type="string">21:31:31 </i>
 </generator>
 <incar>
  <i type="string" name="SYSTEM">Si_surface_6layer</i>
  <i type="string" name="PREC">Accurate</i>
  <i type="int" name="NELMIN">     5</i>
  <i type="int" name="IBRION">     0</i>
  <i name="EDIFF">      0.00010000</i>
  <i name="EDIFFG">     -0.00950000</i>
  <i type="int" name="NSW">   100</i>
  <i type="int" name="ISIF">     2</i>
  <i type="int" name="ISYM">     0</i>
  <i name="ENCUT">    540.00000000</i>
  <i type="int" name="NBANDS">   640</i>
  <i name="POTIM">      1.00000000</i>
  <i name="TEBEG">    300.00000000</i>
  <i name="SMASS">     -1.00000000</i>
  <i type="int" name="ISMEAR">     0</i>
  <i name="SIGMA">      0.01000000</i>
  <i type="int" name="NWRITE">     1</i>
  <i type="int" name="IDIPOL">     3</i>
  <i type="int" name="IVDW">    12</i>
  <i type="int" name="MDALGO">     2</i>
 </incar>
 <primitive_cell>
  <structure name="primitive_cell" >
   <crystal>
    <varray name="basis" >
     <v>      15.33298779       0.00000000       0.00000000 </v>
     <v>       7.66649389      13.27875694       0.00000000 </v>
     <v>       0.00000000       0.00000000      41.55799484 </v>
    </varray>
    <i name="volume">   8461.33316923 </i>
    <varray name="rec_basis" >
     <v>       0.06521886      -0.03765413       0.00000000 </v>
     <v>       0.00000000       0.07530825       0.00000000 </v>
     <v>       0.00000000       0.00000000       0.02406276 </v>
    </varray>
   </crystal>
   <varray name="positions" >
    <v>       0.50625165       0.50280659       0.57342150 </v>
    <v>       0.45914051       0.45668344       0.55835542 </v>
    <v>       0.55031375       0.54669286       0.55537467 </v>
    <v>       0.45534126       0.45406750       0.52328370 </v>
    <v>       0.49870504       0.49889852       0.50320750 </v>
    <v>       0.54634319       0.54467541       0.52039993 </v>
    <v>       0.59864486       0.59320047       0.57138955 </v>
    <v>       0.64294134       0.63759990       0.55451042 </v>
    <v>       0.64002501       0.63629167       0.52059038 </v>
    <v>       0.59374498       0.59160296       0.50489881 </v>
    <v>       0.41516297       0.41207141       0.57780924 </v>
    <v>       0.36822680       0.36461572       0.56455808 </v>
    <v>       0.36416696       0.36034146       0.53065271 </v>
    <v>       0.40593853       0.40331500       0.51176186 </v>
    <v>       0.42048501       0.41698526       0.60387764 </v>
    <v>       0.33494793       0.33073392       0.57964741 </v>
    <v>       0.32772514       0.32272571       0.51926033 </v>
    <v>       0.40138601       0.39804532       0.48599357 </v>
    <v>       0.50877244       0.50451106       0.59967976 </v>
    <v>       0.59266582       0.59086034       0.47864797 </v>
    <v>       0.67500256       0.67103417       0.50672031 </v>
    <v>       0.59922085       0.59237772       0.59765666 </v>
    <v>       0.67981469       0.67317284       0.56684299 </v>
    <v>       0.00001139       0.00000313       0.02029653 </v>
    <v>       0.49998343       0.00000785       0.02029676 </v>
    <v>       0.00000721       0.49999553       0.02029640 </v>
    <v>       0.50001100       0.49999357       0.02029634 </v>
    <v>       0.25001560       0.00000126       0.02029652 </v>
    <v>       0.75002573       0.99999163       0.02029628 </v>
    <v>       0.25002418       0.49998582       0.02029613 </v>
    <v>       0.75000843       0.49999832       0.02029588 </v>
    <v>       0.00001152       0.24998176       0.02029621 </v>
    <v>       0.50000421       0.25000107       0.02029663 </v>
    <v>       0.00000988       0.74998906       0.02029628 </v>
    <v>       0.50002161       0.74997613       0.02029592 </v>
    <v>       0.25003127       0.24997635       0.02029630 </v>
    <v>       0.75001049       0.24999072       0.02029634 </v>
    <v>       0.25002563       0.74997525       0.02029599 </v>
    <v>       0.75002674       0.74997640       0.02029598 </v>
    <v>       0.00021403       0.00076355       0.48742979 </v>
    <v>       0.50070506       0.00009174       0.48756263 </v>
    <v>       0.00035011       0.49937888       0.48758909 </v>
    <v>       0.25059411       0.99940202       0.48760090 </v>
    <v>       0.75067284       0.99963983       0.48759867 </v>
    <v>       0.23828398       0.50864482       0.48720774 </v>
    <v>       0.77006379       0.48678754       0.48640282 </v>
    <v>       0.99990074       0.24913275       0.48738077 </v>
    <v>       0.51037746       0.23551237       0.48658364 </v>
    <v>       0.00059674       0.74943725       0.48763480 </v>
    <v>       0.48662563       0.76632121       0.48661087 </v>
    <v>       0.25161573       0.24853259       0.48758407 </v>
    <v>       0.75385130       0.24621075       0.48726514 </v>
    <v>       0.25268282       0.74885610       0.48744807 </v>
    <v>       0.75147731       0.74996093       0.48762127 </v>
    <v>       0.00000000       0.00000000       0.05648431 </v>
    <v>       0.50000000       0.00000000       0.05648431 </v>
    <v>       1.00000000       0.50000000       0.05648431 </v>
    <v>       0.50000000       0.50000000       0.05648431 </v>
    <v>       0.25000000       0.00000000       0.05648431 </v>
    <v>       0.75000000       0.00000000       0.05648431 </v>
    <v>       0.25000000       0.50000000       0.05648431 </v>
    <v>       0.75000000       0.50000000       0.05648431 </v>
    <v>       1.00000000       0.25000000       0.05648431 </v>
    <v>       0.50000000       0.25000000       0.05648431 </v>
    <v>       0.00000000       0.75000000       0.05648431 </v>
    <v>       0.50000000       0.75000000       0.05648431 </v>
    <v>       0.25000000       0.25000000       0.05648431 </v>
    <v>       0.75000000       0.25000000       0.05648431 </v>
    <v>       0.25000000       0.75000000       0.05648431 </v>
    <v>       0.75000000       0.75000000       0.05648431 </v>
    <v>       0.83333331       0.83333331       0.07531242 </v>
    <v>       0.33333334       0.83333331       0.07531242 </v>
    <v>       0.83333331       0.33333334       0.07531242 </v>
    <v>       0.33333334       0.33333334       0.07531242 </v>
    <v>       0.08333334       0.83333331       0.07531242 </v>
    <v>       0.58333331       0.83333331       0.07531242 </v>
    <v>       0.08333334       0.33333334       0.07531242 </v>
    <v>       0.58333331       0.33333334       0.07531242 </v>
    <v>       0.83333331       0.08333334       0.07531242 </v>
    <v>       0.33333334       0.08333334       0.07531242 </v>
    <v>       0.83333331       0.58333331       0.07531242 </v>
    <v>       0.33333334       0.58333331       0.07531242 </v>
    <v>       0.08333334       0.08333334       0.07531242 </v>
    <v>       0.58333331       0.08333334       0.07531242 </v>
    <v>       0.08333334       0.58333331       0.07531242 </v>
    <v>       0.58333331       0.58333331       0.07531242 </v>
    <v>       0.83333331       0.83333331       0.13179672 </v>
    <v>       0.33333334       0.83333331       0.13179672 </v>
    <v>       0.83333331       0.33333334       0.13179672 </v>
    <v>       0.33333334       0.33333334       0.13179672 </v>
    <v>       0.08333334       0.83333331       0.13179672 </v>
    <v>       0.58333331       0.83333331       0.13179672 </v>
    <v>       0.08333334       0.33333334       0.13179672 </v>
    <v>       0.58333331       0.33333334       0.13179672 </v>
    <v>       0.83333331       0.08333334       0.13179672 </v>
    <v>       0.33333334       0.08333334       0.13179672 </v>
    <v>       0.83333331       0.58333331       0.13179672 </v>
    <v>       0.33333334       0.58333331       0.13179672 </v>
    <v>       0.08333334       0.08333334       0.13179672 </v>
    <v>       0.58333331       0.08333334       0.13179672 </v>
    <v>       0.08333334       0.58333331       0.13179672 </v>
    <v>       0.58333331       0.58333331       0.13179672 </v>
    <v>       0.66666669       0.66666669       0.15062483 </v>
    <v>       0.16666667       0.66666669       0.15062483 </v>
    <v>       0.66666669       0.16666667       0.15062483 </v>
    <v>       0.16666667       0.16666667       0.15062483 </v>
    <v>       0.91666669       0.66666669       0.15062483 </v>
    <v>       0.41666666       0.66666669       0.15062483 </v>
    <v>       0.91666669       0.16666667       0.15062483 </v>
    <v>       0.41666666       0.16666667       0.15062483 </v>
    <v>       0.66666669       0.91666669       0.15062483 </v>
    <v>       0.16666667       0.91666669       0.15062483 </v>
    <v>       0.66666669       0.41666666       0.15062483 </v>
    <v>       0.16666667       0.41666666       0.15062483 </v>
    <v>       0.91666669       0.91666669       0.15062483 </v>
    <v>       0.41666666       0.91666669       0.15062483 </v>
    <v>       0.91666669       0.41666666       0.15062483 </v>
    <v>       0.41666666       0.41666666       0.15062483 </v>
    <v>       0.66691256       0.66650248       0.20705401 </v>
    <v>       0.16691388       0.66649014       0.20705898 </v>
    <v>       0.66690344       0.16650572       0.20706598 </v>
    <v>       0.16684061       0.16660814       0.20708179 </v>
    <v>       0.91692531       0.66649854       0.20705918 </v>
    <v>       0.41692519       0.66647869       0.20706536 </v>
    <v>       0.91692513       0.16650243       0.20707472 </v>
    <v>       0.41696414       0.16651435       0.20706745 </v>
    <v>       0.66691798       0.91648233       0.20704251 </v>
    <v>       0.16694951       0.91644073       0.20704633 </v>
    <v>       0.66691595       0.41648963       0.20705459 </v>
    <v>       0.16692059       0.41647589       0.20705572 </v>
    <v>       0.91694874       0.91646326       0.20705239 </v>
    <v>       0.41701031       0.91640425       0.20704820 </v>
    <v>       0.91693836       0.41649175       0.20706076 </v>
    <v>       0.41692036       0.41647944       0.20706344 </v>
    <v>       0.50027961       0.49979386       0.22588077 </v>
    <v>       0.00028667       0.49982324       0.22588117 </v>
    <v>       0.50028664       0.99980050       0.22585523 </v>
    <v>       0.00032078       0.99976605       0.22586109 </v>
    <v>       0.75028151       0.49981755       0.22585415 </v>
    <v>       0.25025454       0.49979892       0.22586794 </v>
    <v>       0.75028825       0.99977207       0.22584361 </v>
    <v>       0.25032210       0.99981099       0.22577891 </v>
    <v>       0.50031888       0.74973106       0.22591362 </v>
    <v>       0.00028389       0.74979836       0.22589213 </v>
    <v>       0.50029421       0.24984773       0.22593303 </v>
    <v>       0.00016690       0.24989246       0.22594904 </v>
    <v>       0.75026935       0.74982309       0.22586657 </v>
    <v>       0.25028658       0.74977243       0.22589330 </v>
    <v>       0.75025457       0.24982803       0.22588789 </v>
    <v>       0.25034884       0.24982284       0.22589789 </v>
    <v>       0.50049311       0.49963021       0.28230625 </v>
    <v>       0.00050731       0.49968964       0.28230851 </v>
    <v>       0.50051337       0.99962586       0.28226964 </v>
    <v>       0.00059072       0.99956340       0.28227770 </v>
    <v>       0.75046229       0.49970725       0.28226706 </v>
    <v>       0.25044429       0.49965557       0.28228562 </v>
    <v>       0.75051129       0.99957675       0.28225109 </v>
    <v>       0.25060219       0.99960679       0.28215270 </v>
    <v>       0.50056702       0.74950278       0.28235546 </v>
    <v>       0.00050130       0.74963838       0.28232343 </v>
    <v>       0.50053847       0.24974354       0.28238247 </v>
    <v>       0.00022542       0.24985044       0.28240289 </v>
    <v>       0.75046211       0.74969256       0.28228702 </v>
    <v>       0.25051790       0.74957991       0.28232459 </v>
    <v>       0.75041085       0.24970731       0.28231667 </v>
    <v>       0.25066370       0.24970363       0.28232852 </v>
    <v>       0.33391163       0.33313787       0.30122887 </v>
    <v>       0.83340478       0.33325410       0.30123816 </v>
    <v>       0.33380580       0.83306384       0.30105916 </v>
    <v>       0.83384037       0.83295310       0.30113371 </v>
    <v>       0.58387220       0.33310598       0.30124070 </v>
    <v>       0.08398665       0.33295631       0.30108731 </v>
    <v>       0.58382905       0.83298177       0.30112000 </v>
    <v>       0.08388577       0.83291119       0.30115693 </v>
    <v>       0.33384538       0.58284026       0.30112975 </v>
    <v>       0.83381855       0.58302647       0.30109687 </v>
    <v>       0.33384517       0.08289958       0.30104594 </v>
    <v>       0.83388197       0.08288339       0.30102269 </v>
    <v>       0.58398402       0.58273447       0.30118588 </v>
    <v>       0.08386202       0.58297580       0.30116989 </v>
    <v>       0.58390039       0.08290785       0.30108313 </v>
    <v>       0.08406826       0.08289581       0.30098030 </v>
    <v>       0.33418074       0.33310550       0.35768595 </v>
    <v>       0.83330208       0.33328211       0.35770241 </v>
    <v>       0.33392620       0.83304596       0.35745545 </v>
    <v>       0.83404028       0.83280462       0.35756844 </v>
    <v>       0.58410829       0.33300060       0.35770885 </v>
    <v>       0.08433840       0.33275312       0.35748866 </v>
    <v>       0.58401769       0.83285373       0.35754406 </v>
    <v>       0.08410977       0.83272237       0.35759483 </v>
    <v>       0.33404392       0.58261967       0.35755710 </v>
    <v>       0.83402038       0.58289343       0.35751713 </v>
    <v>       0.33403048       0.08267270       0.35745556 </v>
    <v>       0.83417302       0.08264756       0.35741045 </v>
    <v>       0.58421284       0.58247036       0.35763906 </v>
    <v>       0.08408050       0.58283073       0.35761614 </v>
    <v>       0.58416659       0.08268412       0.35749294 </v>
    <v>       0.08446952       0.08268289       0.35735367 </v>
    <v>       0.16750237       0.16613117       0.37643415 </v>
    <v>       0.66756481       0.16602385       0.37631147 </v>
    <v>       0.16749164       0.66605622       0.37656034 </v>
    <v>       0.66733569       0.66616017       0.37640366 </v>
    <v>       0.41735119       0.16604814       0.37621717 </v>
    <v>       0.91776842       0.16601370       0.37598562 </v>
    <v>       0.41725954       0.66628063       0.37613527 </v>
    <v>       0.91737944       0.66613895       0.37648568 </v>
    <v>       0.16747475       0.41617343       0.37655131 </v>
    <v>       0.66688073       0.41633153       0.37716056 </v>
    <v>       0.16737956       0.91619408       0.37643157 </v>
    <v>       0.66741514       0.91608351       0.37649370 </v>
    <v>       0.41768873       0.41624343       0.37676759 </v>
    <v>       0.91761220       0.41603661       0.37622784 </v>
    <v>       0.41740480       0.91610116       0.37647601 </v>
    <v>       0.91741097       0.91610944       0.37645597 </v>
    <v>       0.16767903       0.16601868       0.43291588 </v>
    <v>       0.66807145       0.16565168       0.43270579 </v>
    <v>       0.16780026       0.66585839       0.43304405 </v>
    <v>       0.66744471       0.66602153       0.43283373 </v>
    <v>       0.41754016       0.16573933       0.43258429 </v>
    <v>       0.91823071       0.16568252       0.43225877 </v>
    <v>       0.41748381       0.66564184       0.43242371 </v>
    <v>       0.91753113       0.66601932       0.43295582 </v>
    <v>       0.16775914       0.41606766       0.43303541 </v>
    <v>       0.66592455       0.41664693       0.43386656 </v>
    <v>       0.16749258       0.91610831       0.43289244 </v>
    <v>       0.66757172       0.91595161       0.43296667 </v>
    <v>       0.41854984       0.41658720       0.43330127 </v>
    <v>       0.91812164       0.41572282       0.43258553 </v>
    <v>       0.41758928       0.91584700       0.43295986 </v>
    <v>       0.91758442       0.91597575       0.43291706 </v>
    <v>       0.00075770       0.99963510       0.45123612 </v>
    <v>       0.50083554       0.99938810       0.45135512 </v>
    <v>       0.00090027       0.49926621       0.45138119 </v>
    <v>       0.49915007       0.50163227       0.45311010 </v>
    <v>       0.25088090       0.99934745       0.45139840 </v>
    <v>       0.75093174       0.99929470       0.45140198 </v>
    <v>       0.25146520       0.49905613       0.45152674 </v>
    <v>       0.75167483       0.49909985       0.45102292 </v>
    <v>       0.00081279       0.24924050       0.45118352 </v>
    <v>       0.50116694       0.24878201       0.45088569 </v>
    <v>       0.00098027       0.74929774       0.45143420 </v>
    <v>       0.50066382       0.74889112       0.45122953 </v>
    <v>       0.25121620       0.24923368       0.45135482 </v>
    <v>       0.75239897       0.24808210       0.45107336 </v>
    <v>       0.25122124       0.74940705       0.45126651 </v>
    <v>       0.75080425       0.74921411       0.45141944 </v>
   </varray>
  </structure>
  <varray name="primitive_index" >
   <v type="int" >        1 </v>
   <v type="int" >        2 </v>
   <v type="int" >        3 </v>
   <v type="int" >        4 </v>
   <v type="int" >        5 </v>
   <v type="int" >        6 </v>
   <v type="int" >        7 </v>
   <v type="int" >        8 </v>
   <v type="int" >        9 </v>
   <v type="int" >       10 </v>
   <v type="int" >       11 </v>
   <v type="int" >       12 </v>
   <v type="int" >       13 </v>
   <v type="int" >       14 </v>
   <v type="int" >       15 </v>
   <v type="int" >       16 </v>
   <v type="int" >       17 </v>
   <v type="int" >       18 </v>
   <v type="int" >       19 </v>
   <v type="int" >       20 </v>
   <v type="int" >       21 </v>
   <v type="int" >       22 </v>
   <v type="int" >       23 </v>
   <v type="int" >       24 </v>
   <v type="int" >       25 </v>
   <v type="int" >       26 </v>
   <v type="int" >       27 </v>
   <v type="int" >       28 </v>
   <v type="int" >       29 </v>
   <v type="int" >       30 </v>
   <v type="int" >       31 </v>
   <v type="int" >       32 </v>
   <v type="int" >       33 </v>
   <v type="int" >       34 </v>
   <v type="int" >       35 </v>
   <v type="int" >       36 </v>
   <v type="int" >       37 </v>
   <v type="int" >       38 </v>
   <v type="int" >       39 </v>
   <v type="int" >       40 </v>
   <v type="int" >       41 </v>
   <v type="int" >       42 </v>
   <v type="int" >       43 </v>
   <v type="int" >       44 </v>
   <v type="int" >       45 </v>
   <v type="int" >       46 </v>
   <v type="int" >       47 </v>
   <v type="int" >       48 </v>
   <v type="int" >       49 </v>
   <v type="int" >       50 </v>
   <v type="int" >       51 </v>
   <v type="int" >       52 </v>
   <v type="int" >       53 </v>
   <v type="int" >       54 </v>
   <v type="int" >       55 </v>
   <v type="int" >       56 </v>
   <v type="int" >       57 </v>
   <v type="int" >       58 </v>
   <v type="int" >       59 </v>
   <v type="int" >       60 </v>
   <v type="int" >       61 </v>
   <v type="int" >       62 </v>
   <v type="int" >       63 </v>
   <v type="int" >       64 </v>
   <v type="int" >       65 </v>
   <v type="int" >       66 </v>
   <v type="int" >       67 </v>
   <v type="int" >       68 </v>
   <v type="int" >       69 </v>
   <v type="int" >       70 </v>
   <v type="int" >       71 </v>
   <v type="int" >       72 </v>
   <v type="int" >       73 </v>
   <v type="int" >       74 </v>
   <v type="int" >       75 </v>
   <v type="int" >       76 </v>
   <v type="int" >       77 </v>
   <v type="int" >       78 </v>
   <v type="int" >       79 </v>
   <v type="int" >       80 </v>
   <v type="int" >       81 </v>
   <v type="int" >       82 </v>
   <v type="int" >       83 </v>
   <v type="int" >       84 </v>
   <v type="int" >       85 </v>
   <v type="int" >       86 </v>
   <v type="int" >       87 </v>
   <v type="int" >       88 </v>
   <v type="int" >       89 </v>
   <v type="int" >       90 </v>
   <v type="int" >       91 </v>
   <v type="int" >       92 </v>
   <v type="int" >       93 </v>
   <v type="int" >       94 </v>
   <v type="int" >       95 </v>
   <v type="int" >       96 </v>
   <v type="int" >       97 </v>
   <v type="int" >       98 </v>
   <v type="int" >       99 </v>
   <v type="int" >      100 </v>
   <v type="int" >      101 </v>
   <v type="int" >      102 </v>
   <v type="int" >      103 </v>
   <v type="int" >      104 </v>
   <v type="int" >      105 </v>
   <v type="int" >      106 </v>
   <v type="int" >      107 </v>
   <v type="int" >      108 </v>
   <v type="int" >      109 </v>
   <v type="int" >      110 </v>
   <v type="int" >      111 </v>
   <v type="int" >      112 </v>
   <v type="int" >      113 </v>
   <v type="int" >      114 </v>
   <v type="int" >      115 </v>
   <v type="int" >      116 </v>
   <v type="int" >      117 </v>
   <v type="int" >      118 </v>
   <v type="int" >      119 </v>
   <v type="int" >      120 </v>
   <v type="int" >      121 </v>
   <v type="int" >      122 </v>
   <v type="int" >      123 </v>
   <v type="int" >      124 </v>
   <v type="int" >      125 </v>
   <v type="int" >      126 </v>
   <v type="int" >      127 </v>
   <v type="int" >      128 </v>
   <v type="int" >      129 </v>
   <v type="int" >      130 </v>
   <v type="int" >      131 </v>
   <v type="int" >      132 </v>
   <v type="int" >      133 </v>
   <v type="int" >      134 </v>
   <v type="int" >      135 </v>
   <v type="int" >      136 </v>
   <v type="int" >      137 </v>
   <v type="int" >      138 </v>
   <v type="int" >      139 </v>
   <v type="int" >      140 </v>
   <v type="int" >      141 </v>
   <v type="int" >      142 </v>
   <v type="int" >      143 </v>
   <v type="int" >      144 </v>
   <v type="int" >      145 </v>
   <v type="int" >      146 </v>
   <v type="int" >      147 </v>
   <v type="int" >      148 </v>
   <v type="int" >      149 </v>
   <v type="int" >      150 </v>
   <v type="int" >      151 </v>
   <v type="int" >      152 </v>
   <v type="int" >      153 </v>
   <v type="int" >      154 </v>
   <v type="int" >      155 </v>
   <v type="int" >      156 </v>
   <v type="int" >      157 </v>
   <v type="int" >      158 </v>
   <v type="int" >      159 </v>
   <v type="int" >      160 </v>
   <v type="int" >      161 </v>
   <v type="int" >      162 </v>
   <v type="int" >      163 </v>
   <v type="int" >      164 </v>
   <v type="int" >      165 </v>
   <v type="int" >      166 </v>
   <v type="int" >      167 </v>
   <v type="int" >      168 </v>
   <v type="int" >      169 </v>
   <v type="int" >      170 </v>
   <v type="int" >      171 </v>
   <v type="int" >      172 </v>
   <v type="int" >      173 </v>
   <v type="int" >      174 </v>
   <v type="int" >      175 </v>
   <v type="int" >      176 </v>
   <v type="int" >      177 </v>
   <v type="int" >      178 </v>
   <v type="int" >      179 </v>
   <v type="int" >      180 </v>
   <v type="int" >      181 </v>
   <v type="int" >      182 </v>
   <v type="int" >      183 </v>
   <v type="int" >      184 </v>
   <v type="int" >      185 </v>
   <v type="int" >      186 </v>
   <v type="int" >      187 </v>
   <v type="int" >      188 </v>
   <v type="int" >      189 </v>
   <v type="int" >      190 </v>
   <v type="int" >      191 </v>
   <v type="int" >      192 </v>
   <v type="int" >      193 </v>
   <v type="int" >      194 </v>
   <v type="int" >      195 </v>
   <v type="int" >      196 </v>
   <v type="int" >      197 </v>
   <v type="int" >      198 </v>
   <v type="int" >      199 </v>
   <v type="int" >      200 </v>
   <v type="int" >      201 </v>
   <v type="int" >      202 </v>
   <v type="int" >      203 </v>
   <v type="int" >      204 </v>
   <v type="int" >      205 </v>
   <v type="int" >      206 </v>
   <v type="int" >      207 </v>
   <v type="int" >      208 </v>
   <v type="int" >      209 </v>
   <v type="int" >      210 </v>
   <v type="int" >      211 </v>
   <v type="int" >      212 </v>
   <v type="int" >      213 </v>
   <v type="int" >      214 </v>
   <v type="int" >      215 </v>
   <v type="int" >      216 </v>
   <v type="int" >      217 </v>
   <v type="int" >      218 </v>
   <v type="int" >      219 </v>
   <v type="int" >      220 </v>
   <v type="int" >      221 </v>
   <v type="int" >      222 </v>
   <v type="int" >      223 </v>
   <v type="int" >      224 </v>
   <v type="int" >      225 </v>
   <v type="int" >      226 </v>
   <v type="int" >      227 </v>
   <v type="int" >      228 </v>
   <v type="int" >      229 </v>
   <v type="int" >      230 </v>
   <v type="int" >      231 </v>
   <v type="int" >      232 </v>
   <v type="int" >      233 </v>
   <v type="int" >      234 </v>
   <v type="int" >      235 </v>
   <v type="int" >      236 </v>
   <v type="int" >      237 </v>
   <v type="int" >      238 </v>
   <v type="int" >      239 </v>
   <v type="int" >      240 </v>
   <v type="int" >      241 </v>
   <v type="int" >      242 </v>
   <v type="int" >      243 </v>
   <v type="int" >      244 </v>
   <v type="int" >      245 </v>
   <v type="int" >      246 </v>
  </varray>
 </primitive_cell>
 <kpoints>
  <generation param="Gamma">
   <v type="int" name="divisions">       3        3        1 </v>
   <v name="usershift">      0.00000000       0.00000000       0.00000000 </v>
   <v name="genvec1">      0.33333333       0.00000000       0.00000000 </v>
   <v name="genvec2">      0.00000000       0.33333333       0.00000000 </v>
   <v name="genvec3">      0.00000000       0.00000000       1.00000000 </v>
   <v name="shift">      0.00000000       0.00000000       0.00000000 </v>
  </generation>
  <varray name="kpointlist" >
   <v>       0.00000000       0.00000000       0.00000000 </v>
   <v>       0.33333333       0.00000000       0.00000000 </v>
   <v>       0.33333333       0.33333333       0.00000000 </v>
   <v>       0.00000000       0.33333333       0.00000000 </v>
   <v>      -0.33333333       0.33333333       0.00000000 </v>
  </varray>
  <varray name="weights" >
   <v>       0.11111111 </v>
   <v>       0.22222222 </v>
   <v>       0.22222222 </v>
   <v>       0.22222222 </v>
   <v>       0.22222222 </v>
  </varray>
 </kpoints>
 <parameters>
  <separator name="general" >
   <i type="string" name="SYSTEM">Si_surface_6layer</i>
   <i type="logical" name="LCOMPAT"> F  </i>
  </separator>
  <separator name="electronic" >
   <i type="string" name="PREC">accura</i>
   <i name="ENMAX">    540.00000000</i>
   <i name="ENAUG">    644.87300000</i>
   <i name="EDIFF">      0.00010000</i>
   <i type="int" name="IALGO">    38</i>
   <i type="int" name="IWAVPR">    12</i>
   <i type="int" name="NBANDS">   640</i>
   <i type="int" name="NBANDSLOW">    -1</i>
   <i type="int" name="NBANDSHIGH">    -1</i>
   <i name="NELECT">    864.00000000</i>
   <i type="int" name="TURBO">     0</i>
   <i type="int" name="IRESTART">     0</i>
   <i type="int" name="NREBOOT">     0</i>
   <i type="int" name="NMIN">     0</i>
   <i name="EREF">      0.00000000</i>
   <separator name="electronic smearing" >
    <i type="int" name="ISMEAR">     0</i>
    <i name="SIGMA">      0.01000000</i>
    <i name="KSPACING">      0.50000000</i>
    <i type="logical" name="KGAMMA"> T  </i>
    <i type="logical" name="KBLOWUP"> T  </i>
   </separator>
   <separator name="electronic projectors" >
    <i type="logical" name="LREAL"> F  </i>
    <v name="ROPT">      0.00000000      0.00000000      0.00000000</v>
    <i type="int" name="LMAXPAW">  -100</i>
    <i type="int" name="LMAXMIX">     2</i>
    <i type="logical" name="NLSPLINE"> F  </i>
   </separator>
   <separator name="electronic startup" >
    <i type="int" name="ISTART">     1</i>
    <i type="int" name="ICHARG">     0</i>
    <i type="int" name="INIWAV">     1</i>
   </separator>
   <separator name="electronic spin" >
    <i type="int" name="ISPIN">     1</i>
    <i type="logical" name="LNONCOLLINEAR"> F  </i>
    <v name="MAGMOM">      1.00000000      1.00000000      1.00000000      1.00000000      1.00000000      1.00000000      1.00000000      1.00000000      1.00000000      1.00000000      1.00000000      1.00000000      1.00000000      1.00000000      1.00000000      1.00000000      1.00000000      1.00000000      1.00000000      1.00000000
      1.00000000      1.00000000      1.00000000      1.00000000      1.00000000      1.00000000      1.00000000      1.00000000      1.00000000      1.00000000      1.00000000      1.00000000      1.00000000      1.00000000      1.00000000      1.00000000      1.00000000      1.00000000      1.00000000      1.00000000
      1.00000000      1.00000000      1.00000000      1.00000000      1.00000000      1.00000000      1.00000000      1.00000000      1.00000000      1.00000000      1.00000000      1.00000000      1.00000000      1.00000000      1.00000000      1.00000000      1.00000000      1.00000000      1.00000000      1.00000000
      1.00000000      1.00000000      1.00000000      1.00000000      1.00000000      1.00000000      1.00000000      1.00000000      1.00000000      1.00000000      1.00000000      1.00000000      1.00000000      1.00000000      1.00000000      1.00000000      1.00000000      1.00000000      1.00000000      1.00000000
      1.00000000      1.00000000      1.00000000      1.00000000      1.00000000      1.00000000      1.00000000      1.00000000      1.00000000      1.00000000      1.00000000      1.00000000      1.00000000      1.00000000      1.00000000      1.00000000      1.00000000      1.00000000      1.00000000      1.00000000
      1.00000000      1.00000000      1.00000000      1.00000000      1.00000000      1.00000000      1.00000000      1.00000000      1.00000000      1.00000000      1.00000000      1.00000000      1.00000000      1.00000000      1.00000000      1.00000000      1.00000000      1.00000000      1.00000000      1.00000000
      1.00000000      1.00000000      1.00000000      1.00000000      1.00000000      1.00000000      1.00000000      1.00000000      1.00000000      1.00000000      1.00000000      1.00000000      1.00000000      1.00000000      1.00000000      1.00000000      1.00000000      1.00000000      1.00000000      1.00000000
      1.00000000      1.00000000      1.00000000      1.00000000      1.00000000      1.00000000      1.00000000      1.00000000      1.00000000      1.00000000      1.00000000      1.00000000      1.00000000      1.00000000      1.00000000      1.00000000      1.00000000      1.00000000      1.00000000      1.00000000
      1.00000000      1.00000000      1.00000000      1.00000000      1.00000000      1.00000000      1.00000000      1.00000000      1.00000000      1.00000000      1.00000000      1.00000000      1.00000000      1.00000000      1.00000000      1.00000000      1.00000000      1.00000000      1.00000000      1.00000000
      1.00000000      1.00000000      1.00000000      1.00000000      1.00000000      1.00000000      1.00000000      1.00000000      1.00000000      1.00000000      1.00000000      1.00000000      1.00000000      1.00000000      1.00000000      1.00000000      1.00000000      1.00000000      1.00000000      1.00000000
      1.00000000      1.00000000      1.00000000      1.00000000      1.00000000      1.00000000      1.00000000      1.00000000      1.00000000      1.00000000      1.00000000      1.00000000      1.00000000      1.00000000      1.00000000      1.00000000      1.00000000      1.00000000      1.00000000      1.00000000
      1.00000000      1.00000000      1.00000000      1.00000000      1.00000000      1.00000000      1.00000000      1.00000000      1.00000000      1.00000000      1.00000000      1.00000000      1.00000000      1.00000000      1.00000000      1.00000000      1.00000000      1.00000000      1.00000000      1.00000000
      1.00000000      1.00000000      1.00000000      1.00000000      1.00000000      1.00000000</v>
    <i name="NUPDOWN">     -1.00000000</i>
    <i type="logical" name="LSORBIT"> F  </i>
    <v name="SAXIS">      0.00000000      0.00000000      1.00000000</v>
    <i type="logical" name="LSPIRAL"> F  </i>
    <v name="QSPIRAL">      0.00000000      0.00000000      0.00000000</v>
    <i type="logical" name="LZEROZ"> F  </i>
   </separator>
   <separator name="electronic exchange-correlation" >
    <i type="logical" name="LASPH"> F  </i>
    <i type="logical" name="LMETAGGA"> F  </i>
   </separator>
   <separator name="electronic convergence" >
    <i type="int" name="NELM">    60</i>
    <i type="int" name="NELMDL">     0</i>
    <i type="int" name="NELMIN">     5</i>
    <i name="ENINI">    540.00000000</i>
    <separator name="electronic convergence detail" >
     <i type="logical" name="LDIAG"> T  </i>
     <i type="logical" name="LSUBROT"> F  </i>
     <i name="WEIMIN">      0.00100000</i>
     <i name="EBREAK">      0.00000004</i>
     <i name="DEPER">      0.30000000</i>
     <i type="int" name="NRMM">     4</i>
     <i name="TIME">      0.40000000</i>
    </separator>
   </separator>
   <separator name="electronic mixer" >
    <i name="AMIX">      0.40000000</i>
    <i name="BMIX">      1.00000000</i>
    <i name="AMIN">      0.10000000</i>
    <i name="AMIX_MAG">      1.60000000</i>
    <i name="BMIX_MAG">      1.00000000</i>
    <separator name="electronic mixer details" >
     <i type="int" name="IMIX">     4</i>
     <i type="logical" name="MIXFIRST"> F  </i>
     <i type="int" name="MAXMIX">   -45</i>
     <i name="WC">    100.00000000</i>
     <i type="int" name="INIMIX">     1</i>
     <i type="int" name="MIXPRE">     1</i>
     <i type="int" name="MREMOVE">     5</i>
    </separator>
   </separator>
   <separator name="electronic dipolcorrection" >
    <i type="logical" name="LDIPOL"> F  </i>
    <i type="logical" name="LMONO"> F  </i>
    <i type="int" name="IDIPOL">     3</i>
    <i name="EPSILON">      1.00000000</i>
    <v name="DIPOL">   -100.00000000   -100.00000000   -100.00000000</v>
    <i name="EFIELD">      0.00000000</i>
   </separator>
  </separator>
  <separator name="grids" >
   <i type="int" name="NGX">   120</i>
   <i type="int" name="NGY">   120</i>
   <i type="int" name="NGZ">   320</i>
   <i type="int" name="NGXF">   240</i>
   <i type="int" name="NGYF">   240</i>
   <i type="int" name="NGZF">   640</i>
   <i type="logical" name="ADDGRID"> F  </i>
  </separator>
  <separator name="ionic" >
   <i type="int" name="NSW">   100</i>
   <i type="int" name="IBRION">     0</i>
   <i type="int" name="MDALGO">     2</i>
   <i type="int" name="ISIF">     2</i>
   <i name="PSTRESS">      0.00000000</i>
   <i name="EDIFFG">     -0.00950000</i>
   <i type="int" name="NFREE">     0</i>
   <i name="POTIM">      1.00000000</i>
   <i name="SMASS">     -1.00000000</i>
   <i name="SCALEE">      1.00000000</i>
  </separator>
  <separator name="ionic md" >
   <i name="TEBEG">    300.00000000</i>
   <i name="TEEND">    300.00000000</i>
   <i type="int" name="NBLOCK">     1</i>
   <i type="int" name="KBLOCK">   100</i>
   <i type="int" name="NPACO">   256</i>
   <i name="APACO">     10.00000000</i>
  </separator>
  <separator name="symmetry" >
   <i type="int" name="ISYM">     0</i>
   <i name="SYMPREC">      0.00001000</i>
  </separator>
  <separator name="dos" >
   <i type="int" name="LORBIT">     0</i>
   <v name="RWIGS">     -1.00000000     -1.00000000     -1.00000000</v>
   <i type="int" name="NEDOS">   301</i>
   <i name="EMIN">     10.00000000</i>
   <i name="EMAX">    -10.00000000</i>
   <i name="EFERMI">      0.00000000</i>
  </separator>
  <separator name="writing" >
   <i type="int" name="NWRITE">     1</i>
   <i type="logical" name="LWAVE"> T  </i>
   <i type="logical" name="LDOWNSAMPLE"> F  </i>
   <i type="logical" name="LCHARG"> T  </i>
   <i type="logical" name="LPARD"> F  </i>
   <i type="logical" name="LVTOT"> F  </i>
   <i type="logical" name="LVHAR"> F  </i>
   <i type="logical" name="LELF"> F  </i>
   <i type="logical" name="LOPTICS"> F  </i>
   <v name="STM">      0.00000000      0.00000000      0.00000000      0.00000000      0.00000000      0.00000000      0.00000000</v>
  </separator>
  <separator name="performance" >
   <i type="int" name="NPAR">     8</i>
   <i type="int" name="NSIM">     4</i>
   <i type="int" name="NBLK">    -1</i>
   <i type="logical" name="LPLANE"> T  </i>
   <i type="logical" name="LSCALAPACK"> T  </i>
   <i type="logical" name="LSCAAWARE"> F  </i>
   <i type="logical" name="LSCALU"> F  </i>
   <i type="logical" name="LASYNC"> F  </i>
   <i type="logical" name="LORBITALREAL"> F  </i>
  </separator>
  <separator name="miscellaneous" >
   <i type="int" name="IDIOT">     3</i>
   <i type="int" name="PHON_NSTRUCT">    -1</i>
   <i type="logical" name="LMUSIC"> F  </i>
   <v name="POMASS">     12.01100000      1.00000000     28.08500000</v>
   <v name="DARWINR">      0.00000000      0.00000000      0.00000000</v>
   <v name="DARWINV">      1.00000000      1.00000000      1.00000000</v>
   <i type="logical" name="LCORR"> T  </i>
  </separator>
  <i type="logical" name="GGA_COMPAT"> T  </i>
  <i type="logical" name="LBERRY"> F  </i>
  <i type="int" name="ICORELEVEL">     0</i>
  <i type="logical" name="LDAU"> F  </i>
  <i type="int" name="I_CONSTRAINED_M">     0</i>
  <separator name="electronic exchange-correlation" >
   <i type="string" name="GGA">--</i>
   <i type="int" name="VOSKOWN">     0</i>
   <i type="logical" name="LHFCALC"> F  </i>
   <i type="string" name="PRECFOCK"></i>
   <i type="logical" name="LSYMGRAD"> F  </i>
   <i type="logical" name="LHFONE"> F  </i>
   <i type="logical" name="LRHFCALC"> F  </i>
   <i type="logical" name="LTHOMAS"> F  </i>
   <i type="logical" name="LMODELHF"> F  </i>
   <i type="logical" name="LFOCKACE"> F  </i>
   <i name="ENCUT4O">     -1.00000000</i>
   <i type="int" name="EXXOEP">     0</i>
   <i type="int" name="FOURORBIT">     0</i>
   <i name="AEXX">      0.00000000</i>
   <i name="HFALPHA">      0.00000000</i>
   <i name="MCALPHA">      0.00000000</i>
   <i name="ALDAX">      1.00000000</i>
   <i name="AGGAX">      1.00000000</i>
   <i name="ALDAC">      1.00000000</i>
   <i name="AGGAC">      1.00000000</i>
   <i type="int" name="NKREDX">     1</i>
   <i type="int" name="NKREDY">     1</i>
   <i type="int" name="NKREDZ">     1</i>
   <i type="logical" name="SHIFTRED"> F  </i>
   <i type="logical" name="ODDONLY"> F  </i>
   <i type="logical" name="EVENONLY"> F  </i>
   <i type="int" name="LMAXFOCK">     0</i>
   <i type="int" name="NMAXFOCKAE">     0</i>
   <i type="logical" name="LFOCKAEDFT"> F  </i>
   <i name="HFSCREEN">      0.00000000</i>
   <i name="HFSCREENC">      0.00000000</i>
   <i type="int" name="NBANDSGWLOW">     0</i>
  </separator>
  <separator name="vdW DFT" >
   <i type="logical" name="LUSE_VDW"> F  </i>
   <i type="int" name="IVDW_NL">     1</i>
   <i type="logical" name="LSPIN_VDW"> F  </i>
   <i name="Zab_VDW">     -0.84910000</i>
   <i name="PARAM1">      0.12340000</i>
   <i name="PARAM2">      1.00000000</i>
   <i name="PARAM3">      0.00000000</i>
  </separator>
  <separator name="model GW" >
   <i type="int" name="MODEL_GW">     0</i>
   <i name="MODEL_EPS0">     20.63739797</i>
   <i name="MODEL_ALPHA">      1.00000000</i>
  </separator>
  <separator name="linear response parameters" >
   <i type="logical" name="LEPSILON"> F  </i>
   <i type="logical" name="LRPA"> F  </i>
   <i type="logical" name="LNABLA"> F  </i>
   <i type="logical" name="LVEL"> F  </i>
   <i name="CSHIFT">      0.10000000</i>
   <i name="OMEGAMAX">     -1.00000000</i>
   <i name="DEG_THRESHOLD">      0.00200000</i>
   <i name="RTIME">     -0.10000000</i>
   <i name="WPLASMAI">      0.00000000</i>
   <v name="DFIELD">      0.00000000      0.00000000      0.00000000</v>
   <v name="WPLASMA">      0.00000000      0.00000000      0.00000000      0.00000000      0.00000000      0.00000000      0.00000000      0.00000000      0.00000000</v>
  </separator>
  <separator name="orbital magnetization" >
   <i type="logical" name="NUCIND"> F  </i>
   <v name="MAGPOS">      0.00000000      0.00000000      0.00000000</v>
   <i type="logical" name="LNICSALL"> T  </i>
   <i type="logical" name="ORBITALMAG"> F  </i>
   <i type="logical" name="LMAGBLOCH"> F  </i>
   <i type="logical" name="LCHIMAG"> F  </i>
   <i type="logical" name="LGAUGE"> T  </i>
   <i type="int" name="MAGATOM">     0</i>
   <v name="MAGDIPOL">      0.00000000      0.00000000      0.00000000</v>
   <v name="AVECCONST">      0.00000000      0.00000000      0.00000000</v>
  </separator>
  <separator name="response functions" >
   <i type="logical" name="LALL_IN_ONE"> F  </i>
   <i type="int" name="IALL_IN_ONE">    -1</i>
   <i type="int" name="NBANDS_WAVE">    -1</i>
   <i type="logical" name="LFINITE_TEMPERATURE"> F  </i>
   <i type="logical" name="LADDER"> F  </i>
   <i type="logical" name="LRPAFORCE"> F  </i>
   <i type="logical" name="LFXC"> F  </i>
   <i type="logical" name="LHARTREE"> T  </i>
   <i type="int" name="IBSE">     0</i>
   <v type="int" name="KPOINT">    -1     0     0     0</v>
   <i type="logical" name="LTCTC"> F  </i>
   <i type="logical" name="LTCTE"> F  </i>
   <i type="logical" name="LTETE"> F  </i>
   <i type="logical" name="LTRIPLET"> F  </i>
   <i type="logical" name="LFXCEPS"> F  </i>
   <i type="logical" name="LFXHEG"> F  </i>
   <i type="int" name="NATURALO">     2</i>
   <i type="logical" name="LHOLEGF"> F  </i>
   <i type="logical" name="L2ORDER"> F  </i>
   <i type="logical" name="LDMP1"> F  </i>
   <i type="logical" name="LMP2LT"> F  </i>
   <i type="logical" name="LSMP2LT"> F  </i>
   <i type="logical" name="LGWLF"> F  </i>
   <i name="ENCUTGW">     -1.60000002</i>
   <i name="ENCUTGWSOFT">     -1.60000002</i>
   <i name="ENCUTLF">     -1.00000000</i>
   <i type="logical" name="LESF_SPLINES"> F  </i>
   <i type="int" name="LMAXMP2">    -1</i>
   <i name="SCISSOR">      0.00000000</i>
   <i type="int" name="NOMEGA">     0</i>
   <i type="int" name="NOMEGAR">     0</i>
   <i type="int" name="NBANDSGW">    -1</i>
   <i type="int" name="NBANDSO">    -1</i>
   <i type="int" name="NBANDSV">    -1</i>
   <i type="int" name="NELMGW">     1</i>
   <i type="int" name="NELMHF">     1</i>
   <i type="int" name="DIM">     3</i>
   <i type="int" name="IESPILON">     4</i>
   <i type="int" name="ANTIRES">     0</i>
   <i name="OMEGAMAX">    -30.00000000</i>
   <i name="OMEGAMIN">    -30.00000000</i>
   <i name="OMEGATL">   -200.00000000</i>
   <i type="int" name="OMEGAGRID">     0</i>
   <i name="CSHIFT">     -0.10000000</i>
   <i type="logical" name="LSELFENERGY"> F  </i>
   <i type="logical" name="LSPECTRAL"> F  </i>
   <i type="logical" name="LSPECTRALGW"> F  </i>
   <i type="logical" name="LSINGLES"> F  </i>
   <i type="logical" name="LFERMIGW"> F  </i>
   <i type="logical" name="ODDONLYGW"> F  </i>
   <i type="logical" name="EVENONLYGW"> F  </i>
   <i type="int" name="NKREDLFX">     1</i>
   <i type="int" name="NKREDLFY">     1</i>
   <i type="int" name="NKREDLFZ">     1</i>
   <i type="int" name="MAXMEM">  2800</i>
   <i type="int" name="TELESCOPE">     0</i>
   <i type="int" name="NTAUPAR">    -1</i>
   <i type="int" name="NOMEGAPAR">    -1</i>
   <i name="DAMP_NEWTON">      0.80000001</i>
   <i name="LAMBDA">      1.00000000</i>
  </separator>
  <separator name="External order field" >
   <i name="OFIELD_KAPPA">      0.00000000</i>
   <v name="OFIELD_K">      0.00000000      0.00000000      0.00000000</v>
   <i name="OFIELD_Q6_NEAR">      0.00000000</i>
   <i name="OFIELD_Q6_FAR">      0.00000000</i>
   <i name="OFIELD_A">      0.00000000</i>
  </separator>
  <separator name="optional k-points parameters" >
   <i type="int" name="KPOINTS_OPT_MODE">     1</i>
   <i type="logical" name="LKPOINTS_OPT"> F  </i>
  </separator>
 </parameters>
 <atominfo>
  <atoms>     246 </atoms>
  <types>       3 </types>
  <array name="atoms" >
   <dimension dim="1">ion</dimension>
   <field type="string">element</field>
   <field type="int">atomtype</field>
   <set>
    <rc><c>C </c><c>   1</c></rc>
    <rc><c>C </c><c>   1</c></rc>
    <rc><c>C </c><c>   1</c></rc>
    <rc><c>C </c><c>   1</c></rc>
    <rc><c>C </c><c>   1</c></rc>
    <rc><c>C </c><c>   1</c></rc>
    <rc><c>C </c><c>   1</c></rc>
    <rc><c>C </c><c>   1</c></rc>
    <rc><c>C </c><c>   1</c></rc>
    <rc><c>C </c><c>   1</c></rc>
    <rc><c>C </c><c>   1</c></rc>
    <rc><c>C </c><c>   1</c></rc>
    <rc><c>C </c><c>   1</c></rc>
    <rc><c>C </c><c>   1</c></rc>
    <rc><c>H </c><c>   2</c></rc>
    <rc><c>H </c><c>   2</c></rc>
    <rc><c>H </c><c>   2</c></rc>
    <rc><c>H </c><c>   2</c></rc>
    <rc><c>H </c><c>   2</c></rc>
    <rc><c>H </c><c>   2</c></rc>
    <rc><c>H </c><c>   2</c></rc>
    <rc><c>H </c><c>   2</c></rc>
    <rc><c>H </c><c>   2</c></rc>
    <rc><c>H </c><c>   2</c></rc>
    <rc><c>H </c><c>   2</c></rc>
    <rc><c>H </c><c>   2</c></rc>
    <rc><c>H </c><c>   2</c></rc>
    <rc><c>H </c><c>   2</c></rc>
    <rc><c>H </c><c>   2</c></rc>
    <rc><c>H </c><c>   2</c></rc>
    <rc><c>H </c><c>   2</c></rc>
    <rc><c>H </c><c>   2</c></rc>
    <rc><c>H </c><c>   2</c></rc>
    <rc><c>H </c><c>   2</c></rc>
    <rc><c>H </c><c>   2</c></rc>
    <rc><c>H </c><c>   2</c></rc>
    <rc><c>H </c><c>   2</c></rc>
    <rc><c>H </c><c>   2</c></rc>
    <rc><c>H </c><c>   2</c></rc>
    <rc><c>H </c><c>   2</c></rc>
    <rc><c>H </c><c>   2</c></rc>
    <rc><c>H </c><c>   2</c></rc>
    <rc><c>H </c><c>   2</c></rc>
    <rc><c>H </c><c>   2</c></rc>
    <rc><c>H </c><c>   2</c></rc>
    <rc><c>H </c><c>   2</c></rc>
    <rc><c>H </c><c>   2</c></rc>
    <rc><c>H </c><c>   2</c></rc>
    <rc><c>H </c><c>   2</c></rc>
    <rc><c>H </c><c>   2</c></rc>
    <rc><c>H </c><c>   2</c></rc>
    <rc><c>H </c><c>   2</c></rc>
    <rc><c>H </c><c>   2</c></rc>
    <rc><c>H </c><c>   2</c></rc>
    <rc><c>Si</c><c>   3</c></rc>
    <rc><c>Si</c><c>   3</c></rc>
    <rc><c>Si</c><c>   3</c></rc>
    <rc><c>Si</c><c>   3</c></rc>
    <rc><c>Si</c><c>   3</c></rc>
    <rc><c>Si</c><c>   3</c></rc>
    <rc><c>Si</c><c>   3</c></rc>
    <rc><c>Si</c><c>   3</c></rc>
    <rc><c>Si</c><c>   3</c></rc>
    <rc><c>Si</c><c>   3</c></rc>
    <rc><c>Si</c><c>   3</c></rc>
    <rc><c>Si</c><c>   3</c></rc>
    <rc><c>Si</c><c>   3</c></rc>
    <rc><c>Si</c><c>   3</c></rc>
    <rc><c>Si</c><c>   3</c></rc>
    <rc><c>Si</c><c>   3</c></rc>
    <rc><c>Si</c><c>   3</c></rc>
    <rc><c>Si</c><c>   3</c></rc>
    <rc><c>Si</c><c>   3</c></rc>
    <rc><c>Si</c><c>   3</c></rc>
    <rc><c>Si</c><c>   3</c></rc>
    <rc><c>Si</c><c>   3</c></rc>
    <rc><c>Si</c><c>   3</c></rc>
    <rc><c>Si</c><c>   3</c></rc>
    <rc><c>Si</c><c>   3</c></rc>
    <rc><c>Si</c><c>   3</c></rc>
    <rc><c>Si</c><c>   3</c></rc>
    <rc><c>Si</c><c>   3</c></rc>
    <rc><c>Si</c><c>   3</c></rc>
    <rc><c>Si</c><c>   3</c></rc>
    <rc><c>Si</c><c>   3</c></rc>
    <rc><c>Si</c><c>   3</c></rc>
    <rc><c>Si</c><c>   3</c></rc>
    <rc><c>Si</c><c>   3</c></rc>
    <rc><c>Si</c><c>   3</c></rc>
    <rc><c>Si</c><c>   3</c></rc>
    <rc><c>Si</c><c>   3</c></rc>
    <rc><c>Si</c><c>   3</c></rc>
    <rc><c>Si</c><c>   3</c></rc>
    <rc><c>Si</c><c>   3</c></rc>
    <rc><c>Si</c><c>   3</c></rc>
    <rc><c>Si</c><c>   3</c></rc>
    <rc><c>Si</c><c>   3</c></rc>
    <rc><c>Si</c><c>   3</c></rc>
    <rc><c>Si</c><c>   3</c></rc>
    <rc><c>Si</c><c>   3</c></rc>
    <rc><c>Si</c><c>   3</c></rc>
    <rc><c>Si</c><c>   3</c></rc>
    <rc><c>Si</c><c>   3</c></rc>
    <rc><c>Si</c><c>   3</c></rc>
    <rc><c>Si</c><c>   3</c></rc>
    <rc><c>Si</c><c>   3</c></rc>
    <rc><c>Si</c><c>   3</c></rc>
    <rc><c>Si</c><c>   3</c></rc>
    <rc><c>Si</c><c>   3</c></rc>
    <rc><c>Si</c><c>   3</c></rc>
    <rc><c>Si</c><c>   3</c></rc>
    <rc><c>Si</c><c>   3</c></rc>
    <rc><c>Si</c><c>   3</c></rc>
    <rc><c>Si</c><c>   3</c></rc>
    <rc><c>Si</c><c>   3</c></rc>
    <rc><c>Si</c><c>   3</c></rc>
    <rc><c>Si</c><c>   3</c></rc>
    <rc><c>Si</c><c>   3</c></rc>
    <rc><c>Si</c><c>   3</c></rc>
    <rc><c>Si</c><c>   3</c></rc>
    <rc><c>Si</c><c>   3</c></rc>
    <rc><c>Si</c><c>   3</c></rc>
    <rc><c>Si</c><c>   3</c></rc>
    <rc><c>Si</c><c>   3</c></rc>
    <rc><c>Si</c><c>   3</c></rc>
    <rc><c>Si</c><c>   3</c></rc>
    <rc><c>Si</c><c>   3</c></rc>
    <rc><c>Si</c><c>   3</c></rc>
    <rc><c>Si</c><c>   3</c></rc>
    <rc><c>Si</c><c>   3</c></rc>
    <rc><c>Si</c><c>   3</c></rc>
    <rc><c>Si</c><c>   3</c></rc>
    <rc><c>Si</c><c>   3</c></rc>
    <rc><c>Si</c><c>   3</c></rc>
    <rc><c>Si</c><c>   3</c></rc>
    <rc><c>Si</c><c>   3</c></rc>
    <rc><c>Si</c><c>   3</c></rc>
    <rc><c>Si</c><c>   3</c></rc>
    <rc><c>Si</c><c>   3</c></rc>
    <rc><c>Si</c><c>   3</c></rc>
    <rc><c>Si</c><c>   3</c></rc>
    <rc><c>Si</c><c>   3</c></rc>
    <rc><c>Si</c><c>   3</c></rc>
    <rc><c>Si</c><c>   3</c></rc>
    <rc><c>Si</c><c>   3</c></rc>
    <rc><c>Si</c><c>   3</c></rc>
    <rc><c>Si</c><c>   3</c></rc>
    <rc><c>Si</c><c>   3</c></rc>
    <rc><c>Si</c><c>   3</c></rc>
    <rc><c>Si</c><c>   3</c></rc>
    <rc><c>Si</c><c>   3</c></rc>
    <rc><c>Si</c><c>   3</c></rc>
    <rc><c>Si</c><c>   3</c></rc>
    <rc><c>Si</c><c>   3</c></rc>
    <rc><c>Si</c><c>   3</c></rc>
    <rc><c>Si</c><c>   3</c></rc>
    <rc><c>Si</c><c>   3</c></rc>
    <rc><c>Si</c><c>   3</c></rc>
    <rc><c>Si</c><c>   3</c></rc>
    <rc><c>Si</c><c>   3</c></rc>
    <rc><c>Si</c><c>   3</c></rc>
    <rc><c>Si</c><c>   3</c></rc>
    <rc><c>Si</c><c>   3</c></rc>
    <rc><c>Si</c><c>   3</c></rc>
    <rc><c>Si</c><c>   3</c></rc>
    <rc><c>Si</c><c>   3</c></rc>
    <rc><c>Si</c><c>   3</c></rc>
    <rc><c>Si</c><c>   3</c></rc>
    <rc><c>Si</c><c>   3</c></rc>
    <rc><c>Si</c><c>   3</c></rc>
    <rc><c>Si</c><c>   3</c></rc>
    <rc><c>Si</c><c>   3</c></rc>
    <rc><c>Si</c><c>   3</c></rc>
    <rc><c>Si</c><c>   3</c></rc>
    <rc><c>Si</c><c>   3</c></rc>
    <rc><c>Si</c><c>   3</c></rc>
    <rc><c>Si</c><c>   3</c></rc>
    <rc><c>Si</c><c>   3</c></rc>
    <rc><c>Si</c><c>   3</c></rc>
    <rc><c>Si</c><c>   3</c></rc>
    <rc><c>Si</c><c>   3</c></rc>
    <rc><c>Si</c><c>   3</c></rc>
    <rc><c>Si</c><c>   3</c></rc>
    <rc><c>Si</c><c>   3</c></rc>
    <rc><c>Si</c><c>   3</c></rc>
    <rc><c>Si</c><c>   3</c></rc>
    <rc><c>Si</c><c>   3</c></rc>
    <rc><c>Si</c><c>   3</c></rc>
    <rc><c>Si</c><c>   3</c></rc>
    <rc><c>Si</c><c>   3</c></rc>
    <rc><c>Si</c><c>   3</c></rc>
    <rc><c>Si</c><c>   3</c></rc>
    <rc><c>Si</c><c>   3</c></rc>
    <rc><c>Si</c><c>   3</c></rc>
    <rc><c>Si</c><c>   3</c></rc>
    <rc><c>Si</c><c>   3</c></rc>
    <rc><c>Si</c><c>   3</c></rc>
    <rc><c>Si</c><c>   3</c></rc>
    <rc><c>Si</c><c>   3</c></rc>
    <rc><c>Si</c><c>   3</c></rc>
    <rc><c>Si</c><c>   3</c></rc>
    <rc><c>Si</c><c>   3</c></rc>
    <rc><c>Si</c><c>   3</c></rc>
    <rc><c>Si</c><c>   3</c></rc>
    <rc><c>Si</c><c>   3</c></rc>
    <rc><c>Si</c><c>   3</c></rc>
    <rc><c>Si</c><c>   3</c></rc>
    <rc><c>Si</c><c>   3</c></rc>
    <rc><c>Si</c><c>   3</c></rc>
    <rc><c>Si</c><c>   3</c></rc>
    <rc><c>Si</c><c>   3</c></rc>
    <rc><c>Si</c><c>   3</c></rc>
    <rc><c>Si</c><c>   3</c></rc>
    <rc><c>Si</c><c>   3</c></rc>
    <rc><c>Si</c><c>   3</c></rc>
    <rc><c>Si</c><c>   3</c></rc>
    <rc><c>Si</c><c>   3</c></rc>
    <rc><c>Si</c><c>   3</c></rc>
    <rc><c>Si</c><c>   3</c></rc>
    <rc><c>Si</c><c>   3</c></rc>
    <rc><c>Si</c><c>   3</c></rc>
    <rc><c>Si</c><c>   3</c></rc>
    <rc><c>Si</c><c>   3</c></rc>
    <rc><c>Si</c><c>   3</c></rc>
    <rc><c>Si</c><c>   3</c></rc>
    <rc><c>Si</c><c>   3</c></rc>
    <rc><c>Si</c><c>   3</c></rc>
    <rc><c>Si</c><c>   3</c></rc>
    <rc><c>Si</c><c>   3</c></rc>
    <rc><c>Si</c><c>   3</c></rc>
    <rc><c>Si</c><c>   3</c></rc>
    <rc><c>Si</c><c>   3</c></rc>
    <rc><c>Si</c><c>   3</c></rc>
    <rc><c>Si</c><c>   3</c></rc>
    <rc><c>Si</c><c>   3</c></rc>
    <rc><c>Si</c><c>   3</c></rc>
    <rc><c>Si</c><c>   3</c></rc>
    <rc><c>Si</c><c>   3</c></rc>
    <rc><c>Si</c><c>   3</c></rc>
    <rc><c>Si</c><c>   3</c></rc>
    <rc><c>Si</c><c>   3</c></rc>
    <rc><c>Si</c><c>   3</c></rc>
    <rc><c>Si</c><c>   3</c></rc>
    <rc><c>Si</c><c>   3</c></rc>
    <rc><c>Si</c><c>   3</c></rc>
    <rc><c>Si</c><c>   3</c></rc>
   </set>
  </array>
  <array name="atomtypes" >
   <dimension dim="1">type</dimension>
   <field type="int">atomspertype</field>
   <field type="string">element</field>
   <field>mass</field>
   <field>valence</field>
   <field type="string">pseudopotential</field>
   <set>
    <rc><c>  14</c><c>C </c><c>     12.01100000</c><c>      4.00000000</c><c>  PAW_PBE C_GW 28Sep2005                </c></rc>
    <rc><c>  40</c><c>H </c><c>      1.00000000</c><c>      1.00000000</c><c>  PAW_PBE H_GW 21Apr2008                </c></rc>
    <rc><c> 192</c><c>Si</c><c>     28.08500000</c><c>      4.00000000</c><c>  PAW_PBE Si_GW 04May2012               </c></rc>
   </set>
  </array>
 </atominfo>
 <structure name="initialpos" >
  <crystal>
   <varray name="basis" >
    <v>      15.33298779       0.00000000       0.00000000 </v>
    <v>       7.66649389      13.27875694       0.00000000 </v>
    <v>       0.00000000       0.00000000      41.55799484 </v>
   </varray>
   <i name="volume">   8461.33316923 </i>
   <varray name="rec_basis" >
    <v>       0.06521886      -0.03765413       0.00000000 </v>
    <v>       0.00000000       0.07530825       0.00000000 </v>
    <v>       0.00000000       0.00000000       0.02406276 </v>
   </varray>
  </crystal>
  <varray name="positions" >
   <v>       0.50625165       0.50280659       0.57342150 </v>
   <v>       0.45914051       0.45668344       0.55835542 </v>
   <v>       0.55031375       0.54669286       0.55537467 </v>
   <v>       0.45534126       0.45406750       0.52328370 </v>
   <v>       0.49870504       0.49889852       0.50320750 </v>
   <v>       0.54634319       0.54467541       0.52039993 </v>
   <v>       0.59864486       0.59320047       0.57138955 </v>
   <v>       0.64294134       0.63759990       0.55451042 </v>
   <v>       0.64002501       0.63629167       0.52059038 </v>
   <v>       0.59374498       0.59160296       0.50489881 </v>
   <v>       0.41516297       0.41207141       0.57780924 </v>
   <v>       0.36822680       0.36461572       0.56455808 </v>
   <v>       0.36416696       0.36034146       0.53065271 </v>
   <v>       0.40593853       0.40331500       0.51176186 </v>
   <v>       0.42048501       0.41698526       0.60387764 </v>
   <v>       0.33494793       0.33073392       0.57964741 </v>
   <v>       0.32772514       0.32272571       0.51926033 </v>
   <v>       0.40138601       0.39804532       0.48599357 </v>
   <v>       0.50877244       0.50451106       0.59967976 </v>
   <v>       0.59266582       0.59086034       0.47864797 </v>
   <v>       0.67500256       0.67103417       0.50672031 </v>
   <v>       0.59922085       0.59237772       0.59765666 </v>
   <v>       0.67981469       0.67317284       0.56684299 </v>
   <v>       0.00001139       0.00000313       0.02029653 </v>
   <v>       0.49998343       0.00000785       0.02029676 </v>
   <v>       0.00000721       0.49999553       0.02029640 </v>
   <v>       0.50001100       0.49999357       0.02029634 </v>
   <v>       0.25001560       0.00000126       0.02029652 </v>
   <v>       0.75002573       0.99999163       0.02029628 </v>
   <v>       0.25002418       0.49998582       0.02029613 </v>
   <v>       0.75000843       0.49999832       0.02029588 </v>
   <v>       0.00001152       0.24998176       0.02029621 </v>
   <v>       0.50000421       0.25000107       0.02029663 </v>
   <v>       0.00000988       0.74998906       0.02029628 </v>
   <v>       0.50002161       0.74997613       0.02029592 </v>
   <v>       0.25003127       0.24997635       0.02029630 </v>
   <v>       0.75001049       0.24999072       0.02029634 </v>
   <v>       0.25002563       0.74997525       0.02029599 </v>
   <v>       0.75002674       0.74997640       0.02029598 </v>
   <v>       0.00021403       0.00076355       0.48742979 </v>
   <v>       0.50070506       0.00009174       0.48756263 </v>
   <v>       0.00035011       0.49937888       0.48758909 </v>
   <v>       0.25059411       0.99940202       0.48760090 </v>
   <v>       0.75067284       0.99963983       0.48759867 </v>
   <v>       0.23828398       0.50864482       0.48720774 </v>
   <v>       0.77006379       0.48678754       0.48640282 </v>
   <v>       0.99990074       0.24913275       0.48738077 </v>
   <v>       0.51037746       0.23551237       0.48658364 </v>
   <v>       0.00059674       0.74943725       0.48763480 </v>
   <v>       0.48662563       0.76632121       0.48661087 </v>
   <v>       0.25161573       0.24853259       0.48758407 </v>
   <v>       0.75385130       0.24621075       0.48726514 </v>
   <v>       0.25268282       0.74885610       0.48744807 </v>
   <v>       0.75147731       0.74996093       0.48762127 </v>
   <v>       0.00000000       0.00000000       0.05648431 </v>
   <v>       0.50000000       0.00000000       0.05648431 </v>
   <v>       1.00000000       0.50000000       0.05648431 </v>
   <v>       0.50000000       0.50000000       0.05648431 </v>
   <v>       0.25000000       0.00000000       0.05648431 </v>
   <v>       0.75000000       0.00000000       0.05648431 </v>
   <v>       0.25000000       0.50000000       0.05648431 </v>
   <v>       0.75000000       0.50000000       0.05648431 </v>
   <v>       1.00000000       0.25000000       0.05648431 </v>
   <v>       0.50000000       0.25000000       0.05648431 </v>
   <v>       0.00000000       0.75000000       0.05648431 </v>
   <v>       0.50000000       0.75000000       0.05648431 </v>
   <v>       0.25000000       0.25000000       0.05648431 </v>
   <v>       0.75000000       0.25000000       0.05648431 </v>
   <v>       0.25000000       0.75000000       0.05648431 </v>
   <v>       0.75000000       0.75000000       0.05648431 </v>
   <v>       0.83333331       0.83333331       0.07531242 </v>
   <v>       0.33333334       0.83333331       0.07531242 </v>
   <v>       0.83333331       0.33333334       0.07531242 </v>
   <v>       0.33333334       0.33333334       0.07531242 </v>
   <v>       0.08333334       0.83333331       0.07531242 </v>
   <v>       0.58333331       0.83333331       0.07531242 </v>
   <v>       0.08333334       0.33333334       0.07531242 </v>
   <v>       0.58333331       0.33333334       0.07531242 </v>
   <v>       0.83333331       0.08333334       0.07531242 </v>
   <v>       0.33333334       0.08333334       0.07531242 </v>
   <v>       0.83333331       0.58333331       0.07531242 </v>
   <v>       0.33333334       0.58333331       0.07531242 </v>
   <v>       0.08333334       0.08333334       0.07531242 </v>
   <v>       0.58333331       0.08333334       0.07531242 </v>
   <v>       0.08333334       0.58333331       0.07531242 </v>
   <v>       0.58333331       0.58333331       0.07531242 </v>
   <v>       0.83333331       0.83333331       0.13179672 </v>
   <v>       0.33333334       0.83333331       0.13179672 </v>
   <v>       0.83333331       0.33333334       0.13179672 </v>
   <v>       0.33333334       0.33333334       0.13179672 </v>
   <v>       0.08333334       0.83333331       0.13179672 </v>
   <v>       0.58333331       0.83333331       0.13179672 </v>
   <v>       0.08333334       0.33333334       0.13179672 </v>
   <v>       0.58333331       0.33333334       0.13179672 </v>
   <v>       0.83333331       0.08333334       0.13179672 </v>
   <v>       0.33333334       0.08333334       0.13179672 </v>
   <v>       0.83333331       0.58333331       0.13179672 </v>
   <v>       0.33333334       0.58333331       0.13179672 </v>
   <v>       0.08333334       0.08333334       0.13179672 </v>
   <v>       0.58333331       0.08333334       0.13179672 </v>
   <v>       0.08333334       0.58333331       0.13179672 </v>
   <v>       0.58333331       0.58333331       0.13179672 </v>
   <v>       0.66666669       0.66666669       0.15062483 </v>
   <v>       0.16666667       0.66666669       0.15062483 </v>
   <v>       0.66666669       0.16666667       0.15062483 </v>
   <v>       0.16666667       0.16666667       0.15062483 </v>
   <v>       0.91666669       0.66666669       0.15062483 </v>
   <v>       0.41666666       0.66666669       0.15062483 </v>
   <v>       0.91666669       0.16666667       0.15062483 </v>
   <v>       0.41666666       0.16666667       0.15062483 </v>
   <v>       0.66666669       0.91666669       0.15062483 </v>
   <v>       0.16666667       0.91666669       0.15062483 </v>
   <v>       0.66666669       0.41666666       0.15062483 </v>
   <v>       0.16666667       0.41666666       0.15062483 </v>
   <v>       0.91666669       0.91666669       0.15062483 </v>
   <v>       0.41666666       0.91666669       0.15062483 </v>
   <v>       0.91666669       0.41666666       0.15062483 </v>
   <v>       0.41666666       0.41666666       0.15062483 </v>
   <v>       0.66691256       0.66650248       0.20705401 </v>
   <v>       0.16691388       0.66649014       0.20705898 </v>
   <v>       0.66690344       0.16650572       0.20706598 </v>
   <v>       0.16684061       0.16660814       0.20708179 </v>
   <v>       0.91692531       0.66649854       0.20705918 </v>
   <v>       0.41692519       0.66647869       0.20706536 </v>
   <v>       0.91692513       0.16650243       0.20707472 </v>
   <v>       0.41696414       0.16651435       0.20706745 </v>
   <v>       0.66691798       0.91648233       0.20704251 </v>
   <v>       0.16694951       0.91644073       0.20704633 </v>
   <v>       0.66691595       0.41648963       0.20705459 </v>
   <v>       0.16692059       0.41647589       0.20705572 </v>
   <v>       0.91694874       0.91646326       0.20705239 </v>
   <v>       0.41701031       0.91640425       0.20704820 </v>
   <v>       0.91693836       0.41649175       0.20706076 </v>
   <v>       0.41692036       0.41647944       0.20706344 </v>
   <v>       0.50027961       0.49979386       0.22588077 </v>
   <v>       0.00028667       0.49982324       0.22588117 </v>
   <v>       0.50028664       0.99980050       0.22585523 </v>
   <v>       0.00032078       0.99976605       0.22586109 </v>
   <v>       0.75028151       0.49981755       0.22585415 </v>
   <v>       0.25025454       0.49979892       0.22586794 </v>
   <v>       0.75028825       0.99977207       0.22584361 </v>
   <v>       0.25032210       0.99981099       0.22577891 </v>
   <v>       0.50031888       0.74973106       0.22591362 </v>
   <v>       0.00028389       0.74979836       0.22589213 </v>
   <v>       0.50029421       0.24984773       0.22593303 </v>
   <v>       0.00016690       0.24989246       0.22594904 </v>
   <v>       0.75026935       0.74982309       0.22586657 </v>
   <v>       0.25028658       0.74977243       0.22589330 </v>
   <v>       0.75025457       0.24982803       0.22588789 </v>
   <v>       0.25034884       0.24982284       0.22589789 </v>
   <v>       0.50049311       0.49963021       0.28230625 </v>
   <v>       0.00050731       0.49968964       0.28230851 </v>
   <v>       0.50051337       0.99962586       0.28226964 </v>
   <v>       0.00059072       0.99956340       0.28227770 </v>
   <v>       0.75046229       0.49970725       0.28226706 </v>
   <v>       0.25044429       0.49965557       0.28228562 </v>
   <v>       0.75051129       0.99957675       0.28225109 </v>
   <v>       0.25060219       0.99960679       0.28215270 </v>
   <v>       0.50056702       0.74950278       0.28235546 </v>
   <v>       0.00050130       0.74963838       0.28232343 </v>
   <v>       0.50053847       0.24974354       0.28238247 </v>
   <v>       0.00022542       0.24985044       0.28240289 </v>
   <v>       0.75046211       0.74969256       0.28228702 </v>
   <v>       0.25051790       0.74957991       0.28232459 </v>
   <v>       0.75041085       0.24970731       0.28231667 </v>
   <v>       0.25066370       0.24970363       0.28232852 </v>
   <v>       0.33391163       0.33313787       0.30122887 </v>
   <v>       0.83340478       0.33325410       0.30123816 </v>
   <v>       0.33380580       0.83306384       0.30105916 </v>
   <v>       0.83384037       0.83295310       0.30113371 </v>
   <v>       0.58387220       0.33310598       0.30124070 </v>
   <v>       0.08398665       0.33295631       0.30108731 </v>
   <v>       0.58382905       0.83298177       0.30112000 </v>
   <v>       0.08388577       0.83291119       0.30115693 </v>
   <v>       0.33384538       0.58284026       0.30112975 </v>
   <v>       0.83381855       0.58302647       0.30109687 </v>
   <v>       0.33384517       0.08289958       0.30104594 </v>
   <v>       0.83388197       0.08288339       0.30102269 </v>
   <v>       0.58398402       0.58273447       0.30118588 </v>
   <v>       0.08386202       0.58297580       0.30116989 </v>
   <v>       0.58390039       0.08290785       0.30108313 </v>
   <v>       0.08406826       0.08289581       0.30098030 </v>
   <v>       0.33418074       0.33310550       0.35768595 </v>
   <v>       0.83330208       0.33328211       0.35770241 </v>
   <v>       0.33392620       0.83304596       0.35745545 </v>
   <v>       0.83404028       0.83280462       0.35756844 </v>
   <v>       0.58410829       0.33300060       0.35770885 </v>
   <v>       0.08433840       0.33275312       0.35748866 </v>
   <v>       0.58401769       0.83285373       0.35754406 </v>
   <v>       0.08410977       0.83272237       0.35759483 </v>
   <v>       0.33404392       0.58261967       0.35755710 </v>
   <v>       0.83402038       0.58289343       0.35751713 </v>
   <v>       0.33403048       0.08267270       0.35745556 </v>
   <v>       0.83417302       0.08264756       0.35741045 </v>
   <v>       0.58421284       0.58247036       0.35763906 </v>
   <v>       0.08408050       0.58283073       0.35761614 </v>
   <v>       0.58416659       0.08268412       0.35749294 </v>
   <v>       0.08446952       0.08268289       0.35735367 </v>
   <v>       0.16750237       0.16613117       0.37643415 </v>
   <v>       0.66756481       0.16602385       0.37631147 </v>
   <v>       0.16749164       0.66605622       0.37656034 </v>
   <v>       0.66733569       0.66616017       0.37640366 </v>
   <v>       0.41735119       0.16604814       0.37621717 </v>
   <v>       0.91776842       0.16601370       0.37598562 </v>
   <v>       0.41725954       0.66628063       0.37613527 </v>
   <v>       0.91737944       0.66613895       0.37648568 </v>
   <v>       0.16747475       0.41617343       0.37655131 </v>
   <v>       0.66688073       0.41633153       0.37716056 </v>
   <v>       0.16737956       0.91619408       0.37643157 </v>
   <v>       0.66741514       0.91608351       0.37649370 </v>
   <v>       0.41768873       0.41624343       0.37676759 </v>
   <v>       0.91761220       0.41603661       0.37622784 </v>
   <v>       0.41740480       0.91610116       0.37647601 </v>
   <v>       0.91741097       0.91610944       0.37645597 </v>
   <v>       0.16767903       0.16601868       0.43291588 </v>
   <v>       0.66807145       0.16565168       0.43270579 </v>
   <v>       0.16780026       0.66585839       0.43304405 </v>
   <v>       0.66744471       0.66602153       0.43283373 </v>
   <v>       0.41754016       0.16573933       0.43258429 </v>
   <v>       0.91823071       0.16568252       0.43225877 </v>
   <v>       0.41748381       0.66564184       0.43242371 </v>
   <v>       0.91753113       0.66601932       0.43295582 </v>
   <v>       0.16775914       0.41606766       0.43303541 </v>
   <v>       0.66592455       0.41664693       0.43386656 </v>
   <v>       0.16749258       0.91610831       0.43289244 </v>
   <v>       0.66757172       0.91595161       0.43296667 </v>
   <v>       0.41854984       0.41658720       0.43330127 </v>
   <v>       0.91812164       0.41572282       0.43258553 </v>
   <v>       0.41758928       0.91584700       0.43295986 </v>
   <v>       0.91758442       0.91597575       0.43291706 </v>
   <v>       0.00075770       0.99963510       0.45123612 </v>
   <v>       0.50083554       0.99938810       0.45135512 </v>
   <v>       0.00090027       0.49926621       0.45138119 </v>
   <v>       0.49915007       0.50163227       0.45311010 </v>
   <v>       0.25088090       0.99934745       0.45139840 </v>
   <v>       0.75093174       0.99929470       0.45140198 </v>
   <v>       0.25146520       0.49905613       0.45152674 </v>
   <v>       0.75167483       0.49909985       0.45102292 </v>
   <v>       0.00081279       0.24924050       0.45118352 </v>
   <v>       0.50116694       0.24878201       0.45088569 </v>
   <v>       0.00098027       0.74929774       0.45143420 </v>
   <v>       0.50066382       0.74889112       0.45122953 </v>
   <v>       0.25121620       0.24923368       0.45135482 </v>
   <v>       0.75239897       0.24808210       0.45107336 </v>
   <v>       0.25122124       0.74940705       0.45126651 </v>
   <v>       0.75080425       0.74921411       0.45141944 </v>
  </varray>
  <varray name="selective"  type="logical" >
   <v type="logical" >  T  T  T </v>
   <v type="logical" >  T  T  T </v>
   <v type="logical" >  T  T  T </v>
   <v type="logical" >  T  T  T </v>
   <v type="logical" >  T  T  T </v>
   <v type="logical" >  T  T  T </v>
   <v type="logical" >  T  T  T </v>
   <v type="logical" >  T  T  T </v>
   <v type="logical" >  T  T  T </v>
   <v type="logical" >  T  T  T </v>
   <v type="logical" >  T  T  T </v>
   <v type="logical" >  T  T  T </v>
   <v type="logical" >  T  T  T </v>
   <v type="logical" >  T  T  T </v>
   <v type="logical" >  T  T  T </v>
   <v type="logical" >  T  T  T </v>
   <v type="logical" >  T  T  T </v>
   <v type="logical" >  T  T  T </v>
   <v type="logical" >  T  T  T </v>
   <v type="logical" >  T  T  T </v>
   <v type="logical" >  T  T  T </v>
   <v type="logical" >  T  T  T </v>
   <v type="logical" >  T  T  T </v>
   <v type="logical" >  T  T  T </v>
   <v type="logical" >  T  T  T </v>
   <v type="logical" >  T  T  T </v>
   <v type="logical" >  T  T  T </v>
   <v type="logical" >  T  T  T </v>
   <v type="logical" >  T  T  T </v>
   <v type="logical" >  T  T  T </v>
   <v type="logical" >  T  T  T </v>
   <v type="logical" >  T  T  T </v>
   <v type="logical" >  T  T  T </v>
   <v type="logical" >  T  T  T </v>
   <v type="logical" >  T  T  T </v>
   <v type="logical" >  T  T  T </v>
   <v type="logical" >  T  T  T </v>
   <v type="logical" >  T  T  T </v>
   <v type="logical" >  T  T  T </v>
   <v type="logical" >  T  T  T </v>
   <v type="logical" >  T  T  T </v>
   <v type="logical" >  T  T  T </v>
   <v type="logical" >  T  T  T </v>
   <v type="logical" >  T  T  T </v>
   <v type="logical" >  T  T  T </v>
   <v type="logical" >  T  T  T </v>
   <v type="logical" >  T  T  T </v>
   <v type="logical" >  T  T  T </v>
   <v type="logical" >  T  T  T </v>
   <v type="logical" >  T  T  T </v>
   <v type="logical" >  T  T  T </v>
   <v type="logical" >  T  T  T </v>
   <v type="logical" >  T  T  T </v>
   <v type="logical" >  T  T  T </v>
   <v type="logical" >  F  F  F </v>
   <v type="logical" >  F  F  F </v>
   <v type="logical" >  F  F  F </v>
   <v type="logical" >  F  F  F </v>
   <v type="logical" >  F  F  F </v>
   <v type="logical" >  F  F  F </v>
   <v type="logical" >  F  F  F </v>
   <v type="logical" >  F  F  F </v>
   <v type="logical" >  F  F  F </v>
   <v type="logical" >  F  F  F </v>
   <v type="logical" >  F  F  F </v>
   <v type="logical" >  F  F  F </v>
   <v type="logical" >  F  F  F </v>
   <v type="logical" >  F  F  F </v>
   <v type="logical" >  F  F  F </v>
   <v type="logical" >  F  F  F </v>
   <v type="logical" >  F  F  F </v>
   <v type="logical" >  F  F  F </v>
   <v type="logical" >  F  F  F </v>
   <v type="logical" >  F  F  F </v>
   <v type="logical" >  F  F  F </v>
   <v type="logical" >  F  F  F </v>
   <v type="logical" >  F  F  F </v>
   <v type="logical" >  F  F  F </v>
   <v type="logical" >  F  F  F </v>
   <v type="logical" >  F  F  F </v>
   <v type="logical" >  F  F  F </v>
   <v type="logical" >  F  F  F </v>
   <v type="logical" >  F  F  F </v>
   <v type="logical" >  F  F  F </v>
   <v type="logical" >  F  F  F </v>
   <v type="logical" >  F  F  F </v>
   <v type="logical" >  F  F  F </v>
   <v type="logical" >  F  F  F </v>
   <v type="logical" >  F  F  F </v>
   <v type="logical" >  F  F  F </v>
   <v type="logical" >  F  F  F </v>
   <v type="logical" >  F  F  F </v>
   <v type="logical" >  F  F  F </v>
   <v type="logical" >  F  F  F </v>
   <v type="logical" >  F  F  F </v>
   <v type="logical" >  F  F  F </v>
   <v type="logical" >  F  F  F </v>
   <v type="logical" >  F  F  F </v>
   <v type="logical" >  F  F  F </v>
   <v type="logical" >  F  F  F </v>
   <v type="logical" >  F  F  F </v>
   <v type="logical" >  F  F  F </v>
   <v type="logical" >  F  F  F </v>
   <v type="logical" >  F  F  F </v>
   <v type="logical" >  F  F  F </v>
   <v type="logical" >  F  F  F </v>
   <v type="logical" >  F  F  F </v>
   <v type="logical" >  F  F  F </v>
   <v type="logical" >  F  F  F </v>
   <v type="logical" >  F  F  F </v>
   <v type="logical" >  F  F  F </v>
   <v type="logical" >  F  F  F </v>
   <v type="logical" >  F  F  F </v>
   <v type="logical" >  F  F  F </v>
   <v type="logical" >  F  F  F </v>
   <v type="logical" >  F  F  F </v>
   <v type="logical" >  F  F  F </v>
   <v type="logical" >  F  F  F </v>
   <v type="logical" >  F  F  F </v>
   <v type="logical" >  F  F  F </v>
   <v type="logical" >  F  F  F </v>
   <v type="logical" >  F  F  F </v>
   <v type="logical" >  F  F  F </v>
   <v type="logical" >  F  F  F </v>
   <v type="logical" >  F  F  F </v>
   <v type="logical" >  F  F  F </v>
   <v type="logical" >  F  F  F </v>
   <v type="logical" >  F  F  F </v>
   <v type="logical" >  F  F  F </v>
   <v type="logical" >  F  F  F </v>
   <v type="logical" >  F  F  F </v>
   <v type="logical" >  F  F  F </v>
   <v type="logical" >  F  F  F </v>
   <v type="logical" >  F  F  F </v>
   <v type="logical" >  F  F  F </v>
   <v type="logical" >  F  F  F </v>
   <v type="logical" >  F  F  F </v>
   <v type="logical" >  F  F  F </v>
   <v type="logical" >  F  F  F </v>
   <v type="logical" >  F  F  F </v>
   <v type="logical" >  F  F  F </v>
   <v type="logical" >  F  F  F </v>
   <v type="logical" >  F  F  F </v>
   <v type="logical" >  F  F  F </v>
   <v type="logical" >  F  F  F </v>
   <v type="logical" >  F  F  F </v>
   <v type="logical" >  F  F  F </v>
   <v type="logical" >  F  F  F </v>
   <v type="logical" >  F  F  F </v>
   <v type="logical" >  F  F  F </v>
   <v type="logical" >  F  F  F </v>
   <v type="logical" >  F  F  F </v>
   <v type="logical" >  F  F  F </v>
   <v type="logical" >  F  F  F </v>
   <v type="logical" >  F  F  F </v>
   <v type="logical" >  F  F  F </v>
   <v type="logical" >  F  F  F </v>
   <v type="logical" >  F  F  F </v>
   <v type="logical" >  F  F  F </v>
   <v type="logical" >  F  F  F </v>
   <v type="logical" >  F  F  F </v>
   <v type="logical" >  F  F  F </v>
   <v type="logical" >  F  F  F </v>
   <v type="logical" >  F  F  F </v>
   <v type="logical" >  F  F  F </v>
   <v type="logical" >  F  F  F </v>
   <v type="logical" >  F  F  F </v>
   <v type="logical" >  F  F  F </v>
   <v type="logical" >  F  F  F </v>
   <v type="logical" >  F  F  F </v>
   <v type="logical" >  F  F  F </v>
   <v type="logical" >  F  F  F </v>
   <v type="logical" >  F  F  F </v>
   <v type="logical" >  F  F  F </v>
   <v type="logical" >  F  F  F </v>
   <v type="logical" >  F  F  F </v>
   <v type="logical" >  F  F  F </v>
   <v type="logical" >  F  F  F </v>
   <v type="logical" >  F  F  F </v>
   <v type="logical" >  F  F  F </v>
   <v type="logical" >  F  F  F </v>
   <v type="logical" >  F  F  F </v>
   <v type="logical" >  T  T  T </v>
   <v type="logical" >  T  T  T </v>
   <v type="logical" >  T  T  T </v>
   <v type="logical" >  T  T  T </v>
   <v type="logical" >  T  T  T </v>
   <v type="logical" >  T  T  T </v>
   <v type="logical" >  T  T  T </v>
   <v type="logical" >  T  T  T </v>
   <v type="logical" >  T  T  T </v>
   <v type="logical" >  T  T  T </v>
   <v type="logical" >  T  T  T </v>
   <v type="logical" >  T  T  T </v>
   <v type="logical" >  T  T  T </v>
   <v type="logical" >  T  T  T </v>
   <v type="logical" >  T  T  T </v>
   <v type="logical" >  T  T  T </v>
   <v type="logical" >  T  T  T </v>
   <v type="logical" >  T  T  T </v>
   <v type="logical" >  T  T  T </v>
   <v type="logical" >  T  T  T </v>
   <v type="logical" >  T  T  T </v>
   <v type="logical" >  T  T  T </v>
   <v type="logical" >  T  T  T </v>
   <v type="logical" >  T  T  T </v>
   <v type="logical" >  T  T  T </v>
   <v type="logical" >  T  T  T </v>
   <v type="logical" >  T  T  T </v>
   <v type="logical" >  T  T  T </v>
   <v type="logical" >  T  T  T </v>
   <v type="logical" >  T  T  T </v>
   <v type="logical" >  T  T  T </v>
   <v type="logical" >  T  T  T </v>
   <v type="logical" >  T  T  T </v>
   <v type="logical" >  T  T  T </v>
   <v type="logical" >  T  T  T </v>
   <v type="logical" >  T  T  T </v>
   <v type="logical" >  T  T  T </v>
   <v type="logical" >  T  T  T </v>
   <v type="logical" >  T  T  T </v>
   <v type="logical" >  T  T  T </v>
   <v type="logical" >  T  T  T </v>
   <v type="logical" >  T  T  T </v>
   <v type="logical" >  T  T  T </v>
   <v type="logical" >  T  T  T </v>
   <v type="logical" >  T  T  T </v>
   <v type="logical" >  T  T  T </v>
   <v type="logical" >  T  T  T </v>
   <v type="logical" >  T  T  T </v>
   <v type="logical" >  T  T  T </v>
   <v type="logical" >  T  T  T </v>
   <v type="logical" >  T  T  T </v>
   <v type="logical" >  T  T  T </v>
   <v type="logical" >  T  T  T </v>
   <v type="logical" >  T  T  T </v>
   <v type="logical" >  T  T  T </v>
   <v type="logical" >  T  T  T </v>
   <v type="logical" >  T  T  T </v>
   <v type="logical" >  T  T  T </v>
   <v type="logical" >  T  T  T </v>
   <v type="logical" >  T  T  T </v>
   <v type="logical" >  T  T  T </v>
   <v type="logical" >  T  T  T </v>
   <v type="logical" >  T  T  T </v>
   <v type="logical" >  T  T  T </v>
  </varray>
  <varray name="velocities" >
   <v>      -0.00001884      -0.00002007      -0.00003093 </v>
   <v>      -0.00026634      -0.00050416       0.00015423 </v>
   <v>       0.00024217      -0.00035833      -0.00015597 </v>
   <v>       0.00013865      -0.00031009      -0.00002404 </v>
   <v>       0.00006643      -0.00022626      -0.00005327 </v>
   <v>       0.00032402      -0.00014460       0.00012743 </v>
   <v>      -0.00076697       0.00055482      -0.00016045 </v>
   <v>       0.00041726      -0.00010419       0.00005265 </v>
   <v>       0.00015200       0.00005083       0.00008233 </v>
   <v>       0.00022629       0.00011224       0.00002538 </v>
   <v>      -0.00015072       0.00010527      -0.00005410 </v>
   <v>       0.00089029      -0.00058735       0.00007255 </v>
   <v>      -0.00028965       0.00061490       0.00008109 </v>
   <v>      -0.00042869       0.00063395      -0.00005495 </v>
   <v>       0.00111382      -0.00038078       0.00037449 </v>
[...]
   <v type="logical" >  F  F  F </v>
   <v type="logical" >  F  F  F </v>
   <v type="logical" >  F  F  F </v>
   <v type="logical" >  F  F  F </v>
   <v type="logical" >  F  F  F </v>
   <v type="logical" >  F  F  F </v>
   <v type="logical" >  F  F  F </v>
   <v type="logical" >  F  F  F </v>
   <v type="logical" >  F  F  F </v>
   <v type="logical" >  F  F  F </v>
   <v type="logical" >  F  F  F </v>
   <v type="logical" >  F  F  F </v>
   <v type="logical" >  F  F  F </v>
   <v type="logical" >  F  F  F </v>
   <v type="logical" >  F  F  F </v>
   <v type="logical" >  F  F  F </v>
   <v type="logical" >  F  F  F </v>
   <v type="logical" >  F  F  F </v>
   <v type="logical" >  F  F  F </v>
   <v type="logical" >  F  F  F </v>
   <v type="logical" >  F  F  F </v>
   <v type="logical" >  F  F  F </v>
   <v type="logical" >  F  F  F </v>
   <v type="logical" >  F  F  F </v>
   <v type="logical" >  F  F  F </v>
   <v type="logical" >  F  F  F </v>
   <v type="logical" >  F  F  F </v>
   <v type="logical" >  F  F  F </v>
   <v type="logical" >  F  F  F </v>
   <v type="logical" >  F  F  F </v>
   <v type="logical" >  F  F  F </v>
   <v type="logical" >  F  F  F </v>
   <v type="logical" >  F  F  F </v>
   <v type="logical" >  F  F  F </v>
   <v type="logical" >  F  F  F </v>
   <v type="logical" >  F  F  F </v>
   <v type="logical" >  F  F  F </v>
   <v type="logical" >  F  F  F </v>
   <v type="logical" >  F  F  F </v>
   <v type="logical" >  F  F  F </v>
   <v type="logical" >  F  F  F </v>
   <v type="logical" >  F  F  F </v>
   <v type="logical" >  F  F  F </v>
   <v type="logical" >  F  F  F </v>
   <v type="logical" >  F  F  F </v>
   <v type="logical" >  F  F  F </v>
   <v type="logical" >  F  F  F </v>
   <v type="logical" >  F  F  F </v>
   <v type="logical" >  F  F  F </v>
   <v type="logical" >  F  F  F </v>
   <v type="logical" >  F  F  F </v>
   <v type="logical" >  F  F  F </v>
   <v type="logical" >  T  T  T </v>
   <v type="logical" >  T  T  T </v>
   <v type="logical" >  T  T  T </v>
   <v type="logical" >  T  T  T </v>
   <v type="logical" >  T  T  T </v>
   <v type="logical" >  T  T  T </v>
   <v type="logical" >  T  T  T </v>
   <v type="logical" >  T  T  T </v>
   <v type="logical" >  T  T  T </v>
   <v type="logical" >  T  T  T </v>
   <v type="logical" >  T  T  T </v>
   <v type="logical" >  T  T  T </v>
   <v type="logical" >  T  T  T </v>
   <v type="logical" >  T  T  T </v>
   <v type="logical" >  T  T  T </v>
   <v type="logical" >  T  T  T </v>
   <v type="logical" >  T  T  T </v>
   <v type="logical" >  T  T  T </v>
   <v type="logical" >  T  T  T </v>
   <v type="logical" >  T  T  T </v>
   <v type="logical" >  T  T  T </v>
   <v type="logical" >  T  T  T </v>
   <v type="logical" >  T  T  T </v>
   <v type="logical" >  T  T  T </v>
   <v type="logical" >  T  T  T </v>
   <v type="logical" >  T  T  T </v>
   <v type="logical" >  T  T  T </v>
   <v type="logical" >  T  T  T </v>
   <v type="logical" >  T  T  T </v>
   <v type="logical" >  T  T  T </v>
   <v type="logical" >  T  T  T </v>
   <v type="logical" >  T  T  T </v>
   <v type="logical" >  T  T  T </v>
   <v type="logical" >  T  T  T </v>
   <v type="logical" >  T  T  T </v>
   <v type="logical" >  T  T  T </v>
   <v type="logical" >  T  T  T </v>
   <v type="logical" >  T  T  T </v>
   <v type="logical" >  T  T  T </v>
   <v type="logical" >  T  T  T </v>
   <v type="logical" >  T  T  T </v>
   <v type="logical" >  T  T  T </v>
   <v type="logical" >  T  T  T </v>
   <v type="logical" >  T  T  T </v>
   <v type="logical" >  T  T  T </v>
   <v type="logical" >  T  T  T </v>
   <v type="logical" >  T  T  T </v>
   <v type="logical" >  T  T  T </v>
   <v type="logical" >  T  T  T </v>
   <v type="logical" >  T  T  T </v>
   <v type="logical" >  T  T  T </v>
   <v type="logical" >  T  T  T </v>
   <v type="logical" >  T  T  T </v>
   <v type="logical" >  T  T  T </v>
   <v type="logical" >  T  T  T </v>
   <v type="logical" >  T  T  T </v>
   <v type="logical" >  T  T  T </v>
   <v type="logical" >  T  T  T </v>
   <v type="logical" >  T  T  T </v>
   <v type="logical" >  T  T  T </v>
   <v type="logical" >  T  T  T </v>
   <v type="logical" >  T  T  T </v>
   <v type="logical" >  T  T  T </v>
   <v type="logical" >  T  T  T </v>
  </varray>
  <varray name="velocities" >
   <v>      -0.00006385       0.00021964       0.00001745 </v>
   <v>       0.00009553      -0.00009877       0.00019235 </v>
   <v>       0.00002635       0.00001536       0.00005602 </v>
   <v>      -0.00023417      -0.00004836       0.00001895 </v>
   <v>      -0.00037795       0.00010652       0.00007550 </v>
   <v>       0.00007878      -0.00018828      -0.00015999 </v>
   <v>       0.00009586       0.00010214       0.00003310 </v>
   <v>      -0.00036498      -0.00001901       0.00011322 </v>
   <v>      -0.00005662       0.00003852       0.00011152 </v>
   <v>      -0.00010348       0.00018643       0.00002037 </v>
   <v>      -0.00011253       0.00006612      -0.00005646 </v>
   <v>       0.00019097       0.00034326       0.00000972 </v>
   <v>      -0.00006454       0.00001069       0.00012386 </v>
   <v>      -0.00001419       0.00012021       0.00016745 </v>
   <v>       0.00048114      -0.00002417      -0.00027934 </v>
   <v>      -0.00114970       0.00055826       0.00023766 </v>
   <v>       0.00114438      -0.00079302       0.00044624 </v>
   <v>      -0.00026237       0.00061612       0.00018672 </v>
   <v>       0.00075592      -0.00171765       0.00036996 </v>
   <v>       0.00054292      -0.00084698       0.00001406 </v>
   <v>       0.00072162       0.00106380       0.00022365 </v>
   <v>      -0.00059124       0.00018149       0.00057154 </v>
   <v>       0.00152753       0.00002468       0.00027223 </v>
   <v>       0.00006911      -0.00001868      -0.00008444 </v>
   <v>      -0.00027037       0.00026440      -0.00008064 </v>
   <v>      -0.00000814      -0.00011809       0.00037769 </v>
   <v>       0.00031777      -0.00040739      -0.00036720 </v>
   <v>      -0.00003647      -0.00021341      -0.00022094 </v>
   <v>       0.00014702      -0.00014627      -0.00021140 </v>
   <v>      -0.00011580       0.00018906      -0.00003499 </v>
   <v>       0.00009586       0.00004219       0.00005379 </v>
   <v>       0.00004420       0.00014624       0.00009866 </v>
   <v>       0.00003307       0.00000772       0.00055771 </v>
   <v>      -0.00014517       0.00005163       0.00014597 </v>
   <v>       0.00012679      -0.00020792      -0.00001594 </v>
   <v>       0.00002964       0.00006017      -0.00003774 </v>
   <v>      -0.00004364      -0.00001597      -0.00002440 </v>
   <v>      -0.00000923      -0.00016015      -0.00027569 </v>
   <v>      -0.00032375       0.00010805       0.00010557 </v>
   <v>      -0.00003553       0.00037090       0.00020435 </v>
   <v>       0.00069453      -0.00017323       0.00014856 </v>
   <v>       0.00033743      -0.00072900      -0.00007360 </v>
   <v>       0.00071926      -0.00013616      -0.00007907 </v>
   <v>       0.00072259      -0.00158657       0.00012264 </v>
   <v>      -0.00239489       0.00210303      -0.00017580 </v>
   <v>      -0.00135777       0.00114071      -0.00017899 </v>
   <v>       0.00076680       0.00000780       0.00018424 </v>
   <v>      -0.00076789      -0.00023215       0.00014378 </v>
   <v>      -0.00009861      -0.00012794      -0.00011019 </v>
   <v>       0.00026575       0.00041247       0.00015578 </v>
   <v>       0.00110722      -0.00056300       0.00013893 </v>
   <v>      -0.00024970       0.00046100       0.00010183 </v>
   <v>       0.00019936      -0.00096336       0.00015784 </v>
   <v>      -0.00095277       0.00018925       0.00004774 </v>
   <v>       0.00000000       0.00000000       0.00000000 </v>
   <v>       0.00000000       0.00000000       0.00000000 </v>
   <v>       0.00000000       0.00000000       0.00000000 </v>
   <v>       0.00000000       0.00000000       0.00000000 </v>
   <v>       0.00000000       0.00000000       0.00000000 </v>
   <v>       0.00000000       0.00000000       0.00000000 </v>
   <v>       0.00000000       0.00000000       0.00000000 </v>
   <v>       0.00000000       0.00000000       0.00000000 </v>
   <v>       0.00000000       0.00000000       0.00000000 </v>
   <v>       0.00000000       0.00000000       0.00000000 </v>
   <v>       0.00000000       0.00000000       0.00000000 </v>
   <v>       0.00000000       0.00000000       0.00000000 </v>
   <v>       0.00000000       0.00000000       0.00000000 </v>
   <v>       0.00000000       0.00000000       0.00000000 </v>
   <v>       0.00000000       0.00000000       0.00000000 </v>
   <v>       0.00000000       0.00000000       0.00000000 </v>
   <v>       0.00000000       0.00000000       0.00000000 </v>
   <v>       0.00000000       0.00000000       0.00000000 </v>
   <v>       0.00000000       0.00000000       0.00000000 </v>
   <v>       0.00000000       0.00000000       0.00000000 </v>
   <v>       0.00000000       0.00000000       0.00000000 </v>
   <v>       0.00000000       0.00000000       0.00000000 </v>
   <v>       0.00000000       0.00000000       0.00000000 </v>
   <v>       0.00000000       0.00000000       0.00000000 </v>
   <v>       0.00000000       0.00000000       0.00000000 </v>
   <v>       0.00000000       0.00000000       0.00000000 </v>
   <v>       0.00000000       0.00000000       0.00000000 </v>
   <v>       0.00000000       0.00000000       0.00000000 </v>
   <v>       0.00000000       0.00000000       0.00000000 </v>
   <v>       0.00000000       0.00000000       0.00000000 </v>
   <v>       0.00000000       0.00000000       0.00000000 </v>
   <v>       0.00000000       0.00000000       0.00000000 </v>
   <v>       0.00000000       0.00000000       0.00000000 </v>
   <v>       0.00000000       0.00000000       0.00000000 </v>
   <v>       0.00000000       0.00000000       0.00000000 </v>
   <v>       0.00000000       0.00000000       0.00000000 </v>
   <v>       0.00000000       0.00000000       0.00000000 </v>
   <v>       0.00000000       0.00000000       0.00000000 </v>
   <v>       0.00000000       0.00000000       0.00000000 </v>
   <v>       0.00000000       0.00000000       0.00000000 </v>
   <v>       0.00000000       0.00000000       0.00000000 </v>
   <v>       0.00000000       0.00000000       0.00000000 </v>
   <v>       0.00000000       0.00000000       0.00000000 </v>
   <v>       0.00000000       0.00000000       0.00000000 </v>
   <v>       0.00000000       0.00000000       0.00000000 </v>
   <v>       0.00000000       0.00000000       0.00000000 </v>
   <v>       0.00000000       0.00000000       0.00000000 </v>
   <v>       0.00000000       0.00000000       0.00000000 </v>
   <v>       0.00000000       0.00000000       0.00000000 </v>
   <v>       0.00000000       0.00000000       0.00000000 </v>
   <v>       0.00000000       0.00000000       0.00000000 </v>
   <v>       0.00000000       0.00000000       0.00000000 </v>
   <v>       0.00000000       0.00000000       0.00000000 </v>
   <v>       0.00000000       0.00000000       0.00000000 </v>
   <v>       0.00000000       0.00000000       0.00000000 </v>
   <v>       0.00000000       0.00000000       0.00000000 </v>
   <v>       0.00000000       0.00000000       0.00000000 </v>
   <v>       0.00000000       0.00000000       0.00000000 </v>
   <v>       0.00000000       0.00000000       0.00000000 </v>
   <v>       0.00000000       0.00000000       0.00000000 </v>
   <v>       0.00000000       0.00000000       0.00000000 </v>
   <v>       0.00000000       0.00000000       0.00000000 </v>
   <v>       0.00000000       0.00000000       0.00000000 </v>
   <v>       0.00000000       0.00000000       0.00000000 </v>
   <v>       0.00000000       0.00000000       0.00000000 </v>
   <v>       0.00000000       0.00000000       0.00000000 </v>
   <v>       0.00000000       0.00000000       0.00000000 </v>
   <v>       0.00000000       0.00000000       0.00000000 </v>
   <v>       0.00000000       0.00000000       0.00000000 </v>
   <v>       0.00000000       0.00000000       0.00000000 </v>
   <v>       0.00000000       0.00000000       0.00000000 </v>
   <v>       0.00000000       0.00000000       0.00000000 </v>
   <v>       0.00000000       0.00000000       0.00000000 </v>
   <v>       0.00000000       0.00000000       0.00000000 </v>
   <v>       0.00000000       0.00000000       0.00000000 </v>
   <v>       0.00000000       0.00000000       0.00000000 </v>
   <v>       0.00000000       0.00000000       0.00000000 </v>
   <v>       0.00000000       0.00000000       0.00000000 </v>
   <v>       0.00000000       0.00000000       0.00000000 </v>
   <v>       0.00000000       0.00000000       0.00000000 </v>
   <v>       0.00000000       0.00000000       0.00000000 </v>
   <v>       0.00000000       0.00000000       0.00000000 </v>
   <v>       0.00000000       0.00000000       0.00000000 </v>
   <v>       0.00000000       0.00000000       0.00000000 </v>
   <v>       0.00000000       0.00000000       0.00000000 </v>
   <v>       0.00000000       0.00000000       0.00000000 </v>
   <v>       0.00000000       0.00000000       0.00000000 </v>
   <v>       0.00000000       0.00000000       0.00000000 </v>
   <v>       0.00000000       0.00000000       0.00000000 </v>
   <v>       0.00000000       0.00000000       0.00000000 </v>
   <v>       0.00000000       0.00000000       0.00000000 </v>
   <v>       0.00000000       0.00000000       0.00000000 </v>
   <v>       0.00000000       0.00000000       0.00000000 </v>
   <v>       0.00000000       0.00000000       0.00000000 </v>
   <v>       0.00000000       0.00000000       0.00000000 </v>
   <v>       0.00000000       0.00000000       0.00000000 </v>
   <v>       0.00000000       0.00000000       0.00000000 </v>
   <v>       0.00000000       0.00000000       0.00000000 </v>
   <v>       0.00000000       0.00000000       0.00000000 </v>
   <v>       0.00000000       0.00000000       0.00000000 </v>
   <v>       0.00000000       0.00000000       0.00000000 </v>
   <v>       0.00000000       0.00000000       0.00000000 </v>
   <v>       0.00000000       0.00000000       0.00000000 </v>
   <v>       0.00000000       0.00000000       0.00000000 </v>
   <v>       0.00000000       0.00000000       0.00000000 </v>
   <v>       0.00000000       0.00000000       0.00000000 </v>
   <v>       0.00000000       0.00000000       0.00000000 </v>
   <v>       0.00000000       0.00000000       0.00000000 </v>
   <v>       0.00000000       0.00000000       0.00000000 </v>
   <v>       0.00000000       0.00000000       0.00000000 </v>
   <v>       0.00000000       0.00000000       0.00000000 </v>
   <v>       0.00000000       0.00000000       0.00000000 </v>
   <v>       0.00000000       0.00000000       0.00000000 </v>
   <v>       0.00000000       0.00000000       0.00000000 </v>
   <v>       0.00000000       0.00000000       0.00000000 </v>
   <v>       0.00000000       0.00000000       0.00000000 </v>
   <v>       0.00000000       0.00000000       0.00000000 </v>
   <v>       0.00000000       0.00000000       0.00000000 </v>
   <v>       0.00000000       0.00000000       0.00000000 </v>
   <v>       0.00000000       0.00000000       0.00000000 </v>
   <v>       0.00000000       0.00000000       0.00000000 </v>
   <v>       0.00000000       0.00000000       0.00000000 </v>
   <v>       0.00000000       0.00000000       0.00000000 </v>
   <v>       0.00000000       0.00000000       0.00000000 </v>
   <v>       0.00000000       0.00000000       0.00000000 </v>
   <v>       0.00000000       0.00000000       0.00000000 </v>
   <v>       0.00000000       0.00000000       0.00000000 </v>
   <v>       0.00000000       0.00000000       0.00000000 </v>
   <v>       0.00000767       0.00025335      -0.00003186 </v>
   <v>       0.00003996       0.00001736       0.00004114 </v>
   <v>       0.00007694       0.00001296       0.00000574 </v>
   <v>       0.00000891       0.00008740      -0.00003940 </v>
   <v>       0.00009560       0.00023851       0.00000461 </v>
   <v>       0.00001087      -0.00012701      -0.00007382 </v>
   <v>       0.00019948       0.00012629       0.00001938 </v>
   <v>      -0.00013580      -0.00009815      -0.00002229 </v>
   <v>       0.00003938      -0.00006175       0.00006984 </v>
   <v>      -0.00028747       0.00017889      -0.00005364 </v>
   <v>      -0.00011315      -0.00010321      -0.00000846 </v>
   <v>      -0.00025304       0.00009776       0.00005308 </v>
   <v>      -0.00009200       0.00025439       0.00002715 </v>
   <v>       0.00025202      -0.00015540       0.00001969 </v>
   <v>      -0.00004576       0.00029499      -0.00004906 </v>
   <v>       0.00027655      -0.00013384      -0.00002510 </v>
   <v>      -0.00033518       0.00054496      -0.00005738 </v>
   <v>      -0.00006416      -0.00007493       0.00007631 </v>
   <v>      -0.00002478       0.00003831      -0.00001754 </v>
   <v>       0.00001259      -0.00003679      -0.00000201 </v>
   <v>      -0.00001705      -0.00031013      -0.00010932 </v>
   <v>       0.00012900      -0.00026321       0.00007841 </v>
   <v>       0.00002818       0.00001724      -0.00008166 </v>
   <v>      -0.00002729       0.00010304      -0.00002016 </v>
   <v>       0.00028934      -0.00004082       0.00002410 </v>
   <v>      -0.00009596      -0.00011988       0.00004765 </v>
   <v>       0.00000650       0.00009334       0.00012128 </v>
   <v>       0.00001215      -0.00011694      -0.00003303 </v>
   <v>      -0.00000124       0.00010390      -0.00000843 </v>
   <v>      -0.00033288       0.00006922      -0.00002655 </v>
   <v>       0.00010725      -0.00013407       0.00007447 </v>
   <v>       0.00004513      -0.00001357       0.00005451 </v>
   <v>      -0.00011812       0.00027100      -0.00000246 </v>
   <v>      -0.00022184       0.00006286      -0.00005156 </v>
   <v>       0.00023555      -0.00025252      -0.00010874 </v>
   <v>       0.00015744      -0.00018555       0.00002081 </v>
   <v>      -0.00010222       0.00007018       0.00000850 </v>
   <v>      -0.00007247       0.00002598      -0.00001888 </v>
   <v>       0.00003730       0.00041597      -0.00001172 </v>
   <v>      -0.00020407       0.00007206       0.00006835 </v>
   <v>       0.00024143       0.00000067      -0.00002733 </v>
   <v>      -0.00015824      -0.00009558      -0.00005392 </v>
   <v>      -0.00024965      -0.00000524      -0.00002753 </v>
   <v>       0.00000780       0.00000026       0.00004913 </v>
   <v>      -0.00023699      -0.00000872      -0.00003266 </v>
   <v>      -0.00025135       0.00037313      -0.00006535 </v>
   <v>      -0.00002269      -0.00011202      -0.00010420 </v>
   <v>      -0.00006624       0.00009605       0.00001463 </v>
   <v>      -0.00007398       0.00002474       0.00007922 </v>
   <v>      -0.00010055       0.00002378      -0.00000135 </v>
   <v>       0.00013205      -0.00019150      -0.00002062 </v>
   <v>       0.00003328       0.00013301       0.00015215 </v>
   <v>       0.00020968      -0.00014512      -0.00002951 </v>
   <v>      -0.00009024       0.00004273      -0.00002446 </v>
   <v>       0.00002875       0.00003055       0.00007138 </v>
   <v>      -0.00010996       0.00001112       0.00003641 </v>
   <v>       0.00028249       0.00005638       0.00009546 </v>
   <v>       0.00006856       0.00018079      -0.00000635 </v>
   <v>       0.00011921      -0.00004195      -0.00014554 </v>
   <v>       0.00028280      -0.00017074       0.00008536 </v>
   <v>      -0.00009536       0.00017340       0.00003454 </v>
   <v>      -0.00028981       0.00014224      -0.00000331 </v>
   <v>      -0.00002780      -0.00033804       0.00007863 </v>
   <v>      -0.00012440      -0.00011635       0.00006946 </v>
  </varray>
  <nose>
   <v>      -1.00000000       0.00000000     300.00000000     300.00000000 </v>
  </nose>
 </structure>
</modeling>
