 vasp.6.3.2 27Jun22 (build Oct 28 2022 14:47:18) complex                        
  
 executed on             LinuxIFC date 2024.04.12  17:59:13
 running on  640 total cores
 distrk:  each k-point on  320 cores,    2 groups
 distr:  one band on NCORE=   2 cores,  160 groups


--------------------------------------------------------------------------------------------------------


 INCAR:
   SYSTEM = Si_surface_6layer
   ISTART = 1
   ICHARG = 1
   LWAVE = F
   LCHARG = F
   IVDW = 12
   ISPIN = 2
   NUPDOWN = 2
   ISMEAR = -5
   SIGMA = 0.01
   ENCUT = 540
   EDIFF = 1e-7
   NELMIN = 5
   EDIFFG = -9.5e-3
   PREC = Accurate
   IBRION = -1
   ISIF = 2
   POTIM = 0.25
   NSW = 0
   NBANDS = 640
   NCORE = 2
   KPAR = 2
   ISYM = 0
   IDIPOL = 3
   LORBIT = 11
   EMIN = -5
   EMAX = 3
   NEDOS = 4001

 POTCAR:    PAW_PBE C_GW 28Sep2005                
 POTCAR:    PAW_PBE H_GW 21Apr2008                
 POTCAR:    PAW_PBE Si_GW 04May2012               
 POTCAR:    PAW_PBE H_GW 21Apr2008                
 -----------------------------------------------------------------------------
|                                                                             |
|           W    W    AA    RRRRR   N    N  II  N    N   GGGG   !!!           |
|           W    W   A  A   R    R  NN   N  II  NN   N  G    G  !!!           |
|           W    W  A    A  R    R  N N  N  II  N N  N  G       !!!           |
|           W WW W  AAAAAA  RRRRR   N  N N  II  N  N N  G  GGG   !            |
|           WW  WW  A    A  R   R   N   NN  II  N   NN  G    G                |
|           W    W  A    A  R    R  N    N  II  N    N   GGGG   !!!           |
|                                                                             |
|     You use a magnetic or noncollinear calculation, but did not specify     |
|     the initial magnetic moment with the MAGMOM tag. Note that a            |
|     default of 7.937e-3 will be used for all atoms. This ferromagnetic      |
|     setup may break the symmetry of the crystal, in particular it may       |
|     rule out finding an antiferromagnetic solution. Thence, we              |
|     recommend setting the initial magnetic moment manually or verifying     |
|     carefully that this magnetic setup is desired.                          |
|                                                                             |
 -----------------------------------------------------------------------------

 -----------------------------------------------------------------------------
|                                                                             |
|           W    W    AA    RRRRR   N    N  II  N    N   GGGG   !!!           |
|           W    W   A  A   R    R  NN   N  II  NN   N  G    G  !!!           |
|           W    W  A    A  R    R  N N  N  II  N N  N  G       !!!           |
|           W WW W  AAAAAA  RRRRR   N  N N  II  N  N N  G  GGG   !            |
|           WW  WW  A    A  R   R   N   NN  II  N   NN  G    G                |
|           W    W  A    A  R    R  N    N  II  N    N   GGGG   !!!           |
|                                                                             |
|     For optimal performance we recommend to set                             |
|       NCORE = 2 up to number-of-cores-per-socket                            |
|     NCORE specifies how many cores store one orbital (NPAR=cpu/NCORE).      |
|     This setting can greatly improve the performance of VASP for DFT.       |
|     The default, NCORE=1 might be grossly inefficient on modern             |
|     multi-core architectures or massively parallel machines. Do your        |
|     own testing! More info at https://www.vasp.at/wiki/index.php/NCORE      |
|     Unfortunately you need to use the default for GW and RPA                |
|     calculations (for HF NCORE is supported but not extensively tested      |
|     yet).                                                                   |
|                                                                             |
 -----------------------------------------------------------------------------

 POTCAR:    PAW_PBE C_GW 28Sep2005                
   SHA256 =  2c64eee1059aeb37bcbfbbf93191b6229a866e6b7fb7be04c2badc02647cde23 C_GW/POTCAR           
   COPYR  = (c) Copyright 28Sep2005 Georg Kresse                                                    
   COPYR  = This file is part of the software VASP. Any use, copying, and all other rights are regul
   COPYR  = If you do not have a valid VASP license, you may not use, copy or distribute this file. 
   VRHFIN =C: s2p2                                                                                  
   LEXCH  = PE                                                                                      
   EATOM  =   147.1560 eV,   10.8157 Ry                                                             
                                                                                                    
   TITEL  = PAW_PBE C_GW 28Sep2005                                                                  
   LULTRA =        F    use ultrasoft PP ?                                                          
   IUNSCR =        0    unscreen: 0-lin 1-nonlin 2-no                                               
   RPACOR =    0.000    partial core radius                                                         
   POMASS =   12.011; ZVAL   =    4.000    mass and valenz                                          
   RCORE  =    1.500    outmost cutoff radius                                                       
   RWIGS  =    1.630; RWIGS  =    0.863    wigner-seitz radius (au A)                               
   ENMAX  =  413.992; ENMIN  =  310.494 eV                                                          
   ICORE  =        2    local potential                                                             
   LCOR   =        T    correct aug charges                                                         
   LPAW   =        T    paw PP                                                                      
   EAUG   =  644.873                                                                                
   DEXC   =    0.000                                                                                
   RMAX   =    1.529    core radius for proj-oper                                                   
   RAUG   =    1.300    factor for augmentation sphere                                              
   RDEP   =    1.501    radius for radial grids                                                     
   RDEPT  =    1.300    core radius for aug-charge                                                  
                                                                                                    
   Atomic configuration                                                                             
    4 entries                                                                                       
     n  l   j            E        occ.                                                              
     1  0  0.50      -273.3789   2.0000                                                             
     2  0  0.50       -13.7508   2.0000                                                             
     2  1  0.50        -5.2854   2.0000                                                             
     3  2  1.50        -5.4423   0.0000                                                             
   Description                                                                                      
     l       E           TYP  RCUT    TYP  RCUT                                                     
     0    -13.7508457     23  1.200                                                                 
     0     95.2407820     23  1.200                                                                 
     1     -5.2854382     23  1.500                                                                 
     1    108.8466080     23  1.500                                                                 
     2     -5.4423304      7  1.500                                                                 
  local pseudopotential read in
  kinetic energy density of atom read in
  atomic valenz-charges read in
  non local Contribution for L=           0  read in
    real space projection operators read in
  non local Contribution for L=           0  read in
    real space projection operators read in
  non local Contribution for L=           1  read in
    real space projection operators read in
  non local Contribution for L=           1  read in
    real space projection operators read in
    PAW grid and wavefunctions read in
 
   number of l-projection  operators is LMAX  =           4
   number of lm-projection operators is LMMAX =           8
 
 POTCAR:    PAW_PBE H_GW 21Apr2008                
   SHA256 =  cecc88617a3d1ece9865646f5d462fc0f44fd1f68d6f2eb08f18a2e421902afb H_GW/POTCAR           
   COPYR  = (c) Copyright 21Apr2008 Georg Kresse                                                    
   COPYR  = This file is part of the software VASP. Any use, copying, and all other rights are regul
   COPYR  = If you do not have a valid VASP license, you may not use, copy or distribute this file. 
   VRHFIN =H: ultrasoft test                                                                        
   LEXCH  = PE                                                                                      
   EATOM  =    12.4884 eV,    0.9179 Ry                                                             
                                                                                                    
   TITEL  = PAW_PBE H_GW 21Apr2008                                                                  
   LULTRA =        F    use ultrasoft PP ?                                                          
   IUNSCR =        0    unscreen: 0-lin 1-nonlin 2-no                                               
   RPACOR =    0.000    partial core radius                                                         
   POMASS =    1.000; ZVAL   =    1.000    mass and valenz                                          
   RCORE  =    1.100    outmost cutoff radius                                                       
   RWIGS  =    1.100; RWIGS  =    0.582    wigner-seitz radius (au A)                               
   ENMAX  =  300.000; ENMIN  =  250.000 eV                                                          
   RCLOC  =    0.701    cutoff for local pot                                                        
   LCOR   =        T    correct aug charges                                                         
   LPAW   =        T    paw PP                                                                      
   EAUG   =  500.000                                                                                
   RMAX   =    1.123    core radius for proj-oper                                                   
   RAUG   =    1.200    factor for augmentation sphere                                              
   RDEP   =    1.112    radius for radial grids                                                     
   RDEPT  =    1.100    core radius for aug-charge                                                  
                                                                                                    
   Atomic configuration                                                                             
    3 entries                                                                                       
     n  l   j            E        occ.                                                              
     1  0  0.50        -6.4927   1.0000                                                             
     2  1  0.50        -3.4015   0.0000                                                             
     3  2  1.50        13.6058   0.0000                                                             
   Description                                                                                      
     l       E           TYP  RCUT    TYP  RCUT                                                     
     0     -6.4927495     23  0.950                                                                 
     0      6.8029130     23  0.950                                                                 
     1     -4.0817478     23  1.100                                                                 
     1    108.8466080     23  1.100                                                                 
     2     81.6349560     23  1.100                                                                 
  local pseudopotential read in
  kinetic energy density of atom read in
  atomic valenz-charges read in
  non local Contribution for L=           0  read in
    real space projection operators read in
  non local Contribution for L=           0  read in
    real space projection operators read in
  non local Contribution for L=           1  read in
    real space projection operators read in
  non local Contribution for L=           1  read in
    real space projection operators read in
  non local Contribution for L=           2  read in
    real space projection operators read in
    PAW grid and wavefunctions read in
 
   number of l-projection  operators is LMAX  =           5
   number of lm-projection operators is LMMAX =          13
 
 POTCAR:    PAW_PBE Si_GW 04May2012               
   SHA256 =  9ee269d4247e69d62ab9db642b0c3f6e4981ddd1f39659ad08dec53e20e43eb1 Si_GW/POTCAR          
   COPYR  = (c) Copyright 04May2012 Georg Kresse                                                    
   COPYR  = This file is part of the software VASP. Any use, copying, and all other rights are regul
   COPYR  = If you do not have a valid VASP license, you may not use, copy or distribute this file. 
   VRHFIN =Si: s2p2                                                                                 
   LEXCH  = PE                                                                                      
   EATOM  =   103.0669 eV,    7.5752 Ry                                                             
                                                                                                    
   TITEL  = PAW_PBE Si_GW 04May2012                                                                 
   LULTRA =        F    use ultrasoft PP ?                                                          
   IUNSCR =        1    unscreen: 0-lin 1-nonlin 2-no                                               
   RPACOR =    1.500    partial core radius                                                         
   POMASS =   28.085; ZVAL   =    4.000    mass and valenz                                          
   RCORE  =    1.900    outmost cutoff radius                                                       
   RWIGS  =    2.480; RWIGS  =    1.312    wigner-seitz radius (au A)                               
   ENMAX  =  245.345; ENMIN  =  184.009 eV                                                          
   ICORE  =        3    local potential                                                             
   LCOR   =        T    correct aug charges                                                         
   LPAW   =        T    paw PP                                                                      
   EAUG   =  412.952                                                                                
   DEXC   =    0.000                                                                                
   RMAX   =    1.950    core radius for proj-oper                                                   
   RAUG   =    1.300    factor for augmentation sphere                                              
   RDEP   =    1.993    radius for radial grids                                                     
   RDEPT  =    2.000    core radius for aug-charge                                                  
                                                                                                    
   Atomic configuration                                                                             
    7 entries                                                                                       
     n  l   j            E        occ.                                                              
     1  0  0.50     -1785.8828   2.0000                                                             
     2  0  0.50      -139.4969   2.0000                                                             
     2  1  1.50       -95.5546   6.0000                                                             
     3  0  0.50       -10.8127   2.0000                                                             
     3  1  0.50        -4.0811   2.0000                                                             
     3  2  1.50        -4.0817   0.0000                                                             
     4  3  2.50        -4.0817   0.0000                                                             
   Description                                                                                      
     l       E           TYP  RCUT    TYP  RCUT                                                     
     0    -10.8127223     23  1.900                                                                 
     0     95.2407820     23  1.900                                                                 
     1     -4.0811372     23  1.900                                                                 
     1     54.4233040     23  1.900                                                                 
     2     -8.1634956     23  1.900                                                                 
     2     81.6349560     23  1.900                                                                 
     3     27.2116520     23  1.900                                                                 
  local pseudopotential read in
  partial core-charges read in
  partial kinetic energy density read in
  kinetic energy density of atom read in
  atomic valenz-charges read in
  non local Contribution for L=           0  read in
    real space projection operators read in
  non local Contribution for L=           0  read in
    real space projection operators read in
  non local Contribution for L=           1  read in
    real space projection operators read in
  non local Contribution for L=           1  read in
    real space projection operators read in
  non local Contribution for L=           2  read in
    real space projection operators read in
  non local Contribution for L=           2  read in
    real space projection operators read in
    PAW grid and wavefunctions read in
 
   number of l-projection  operators is LMAX  =           6
   number of lm-projection operators is LMMAX =          18
 
 POTCAR:    PAW_PBE H_GW 21Apr2008                
   SHA256 =  cecc88617a3d1ece9865646f5d462fc0f44fd1f68d6f2eb08f18a2e421902afb H_GW/POTCAR           
   COPYR  = (c) Copyright 21Apr2008 Georg Kresse                                                    
   COPYR  = This file is part of the software VASP. Any use, copying, and all other rights are regul
   COPYR  = If you do not have a valid VASP license, you may not use, copy or distribute this file. 
   VRHFIN =H: ultrasoft test                                                                        
   LEXCH  = PE                                                                                      
   EATOM  =    12.4884 eV,    0.9179 Ry                                                             
                                                                                                    
   TITEL  = PAW_PBE H_GW 21Apr2008                                                                  
   LULTRA =        F    use ultrasoft PP ?                                                          
   IUNSCR =        0    unscreen: 0-lin 1-nonlin 2-no                                               
   RPACOR =    0.000    partial core radius                                                         
   POMASS =    1.000; ZVAL   =    1.000    mass and valenz                                          
   RCORE  =    1.100    outmost cutoff radius                                                       
   RWIGS  =    1.100; RWIGS  =    0.582    wigner-seitz radius (au A)                               
   ENMAX  =  300.000; ENMIN  =  250.000 eV                                                          
   RCLOC  =    0.701    cutoff for local pot                                                        
   LCOR   =        T    correct aug charges                                                         
   LPAW   =        T    paw PP                                                                      
   EAUG   =  500.000                                                                                
   RMAX   =    1.123    core radius for proj-oper                                                   
   RAUG   =    1.200    factor for augmentation sphere                                              
   RDEP   =    1.112    radius for radial grids                                                     
   RDEPT  =    1.100    core radius for aug-charge                                                  
                                                                                                    
   Atomic configuration                                                                             
    3 entries                                                                                       
     n  l   j            E        occ.                                                              
     1  0  0.50        -6.4927   1.0000                                                             
     2  1  0.50        -3.4015   0.0000                                                             
     3  2  1.50        13.6058   0.0000                                                             
   Description                                                                                      
     l       E           TYP  RCUT    TYP  RCUT                                                     
     0     -6.4927495     23  0.950                                                                 
     0      6.8029130     23  0.950                                                                 
     1     -4.0817478     23  1.100                                                                 
     1    108.8466080     23  1.100                                                                 
     2     81.6349560     23  1.100                                                                 
  local pseudopotential read in
  kinetic energy density of atom read in
  atomic valenz-charges read in
  non local Contribution for L=           0  read in
    real space projection operators read in
  non local Contribution for L=           0  read in
    real space projection operators read in
  non local Contribution for L=           1  read in
    real space projection operators read in
  non local Contribution for L=           1  read in
    real space projection operators read in
  non local Contribution for L=           2  read in
    real space projection operators read in
    PAW grid and wavefunctions read in
 
   number of l-projection  operators is LMAX  =           5
   number of lm-projection operators is LMMAX =          13
 
 -----------------------------------------------------------------------------
|                                                                             |
|               ----> ADVICE to this user running VASP <----                  |
|                                                                             |
|     You have a (more or less) 'large supercell' and for larger cells it     |
|     might be more efficient to use real-space projection operators.         |
|     Therefore, try LREAL= Auto in the INCAR file.                           |
|     Mind: For very accurate calculation, you might also keep the            |
|     reciprocal projection scheme (i.e. LREAL=.FALSE.).                      |
|                                                                             |
 -----------------------------------------------------------------------------

  PAW_PBE C_GW 28Sep2005                :
 energy of atom  1       EATOM= -147.1560
 kinetic energy error for atom=    0.0068 (will be added to EATOM!!)
  PAW_PBE H_GW 21Apr2008                :
 energy of atom  2       EATOM=  -12.4884
 kinetic energy error for atom=    0.0069 (will be added to EATOM!!)
  PAW_PBE Si_GW 04May2012               :
 energy of atom  3       EATOM= -103.0669
 kinetic energy error for atom=    0.0005 (will be added to EATOM!!)
  PAW_PBE H_GW 21Apr2008                :
 energy of atom  4       EATOM=  -12.4884
 kinetic energy error for atom=    0.0069 (will be added to EATOM!!)
 
 
 POSCAR: 4x4_si_surface_from540eV_1x1x1conv
  positions in direct lattice
  velocities in cartesian coordinates
 exchange correlation table for  LEXCH =        8
   RHO(1)=    0.500       N(1)  =     2000
   RHO(2)=  100.500       N(2)  =     4000
 


--------------------------------------------------------------------------------------------------------


 ion  position               nearest neighbor table
   1  0.575  0.419  0.611-   2 1.41   3 1.42   6 1.51
   2  0.526  0.376  0.630-   1 1.41   8 1.43   4 1.45
   3  0.623  0.463  0.629-   1 1.42   9 1.43   5 1.45
   4  0.531  0.372  0.668-   7 1.40  10 1.43   2 1.45
   5  0.627  0.459  0.668-   7 1.40  11 1.43   3 1.45
   6  0.577  0.416  0.571-  17 1.10  23 1.10   1 1.51  12 1.54
   7  0.582  0.413  0.686-  18 1.09   4 1.40   5 1.40
   8  0.471  0.335  0.613-  19 1.09  13 1.37   2 1.43
   9  0.669  0.512  0.612-  20 1.09  14 1.37   3 1.43
  10  0.484  0.325  0.687-  21 1.09  15 1.37   4 1.43
  11  0.678  0.502  0.686-  22 1.09  16 1.37   5 1.43
  12  0.493  0.510  0.552-  25 1.10  24 1.10   6 1.54 225 1.91
  13  0.426  0.292  0.632-  26 1.09   8 1.37  15 1.42
  14  0.717  0.553  0.631-  27 1.09   9 1.37  16 1.42
  15  0.434  0.285  0.669-  28 1.09  10 1.37  13 1.42
  16  0.722  0.548  0.668-  29 1.09  11 1.37  14 1.42
  17  0.576  0.349  0.561-   6 1.10
  18  0.586  0.408  0.715-   7 1.09
  19  0.463  0.340  0.584-   8 1.09
  20  0.667  0.518  0.583-   9 1.09
  21  0.490  0.321  0.716-  10 1.09
  22  0.681  0.497  0.715-  11 1.09
  23  0.651  0.405  0.562-   6 1.10
  24  0.418  0.523  0.561-  12 1.10
  25  0.496  0.578  0.560-  12 1.10
  26  0.385  0.261  0.618-  13 1.09
  27  0.752  0.590  0.616-  14 1.09
  28  0.399  0.250  0.684-  15 1.09
  29  0.761  0.580  0.683-  16 1.09
  30  0.000  0.000  0.022-  46 1.50
  31  0.500  0.000  0.022-  47 1.50
  32  1.000  0.500  0.022-  48 1.50
  33  0.500  0.500  0.022-  49 1.50
  34  0.250  0.000  0.022-  50 1.50
  35  0.750  1.000  0.022-  51 1.50
  36  0.250  0.500  0.022-  52 1.50
  37  0.750  0.500  0.022-  53 1.50
  38  0.000  0.250  0.022-  54 1.50
  39  0.500  0.250  0.022-  55 1.50
  40  0.000  0.750  0.022-  56 1.50
  41  0.500  0.750  0.022-  57 1.50
  42  0.250  0.250  0.022-  58 1.50
  43  0.750  0.250  0.022-  59 1.50
  44  0.250  0.750  0.022-  60 1.50
  45  0.750  0.750  0.022-  61 1.50
  46  0.000  0.000  0.062-  30 1.50  66 2.35  70 2.35  74 2.35
  47  0.500  0.000  0.062-  31 1.50  67 2.35  71 2.35  75 2.35
  48  0.000  0.500  0.062-  32 1.50  68 2.35  72 2.35  76 2.35
  49  0.500  0.500  0.062-  33 1.50  69 2.35  73 2.35  77 2.35
  50  0.250  0.000  0.062-  34 1.50  63 2.35  74 2.35  71 2.35
  51  0.750  0.000  0.062-  35 1.50  62 2.35  75 2.35  70 2.35
  52  0.250  0.500  0.062-  36 1.50  65 2.35  76 2.35  73 2.35
  53  0.750  0.500  0.062-  37 1.50  64 2.35  77 2.35  72 2.35
  54  0.000  0.250  0.062-  38 1.50  64 2.35  74 2.35  68 2.35
  55  0.500  0.250  0.062-  39 1.50  65 2.35  75 2.35  69 2.35
  56  0.000  0.750  0.062-  40 1.50  62 2.35  76 2.35  66 2.35
  57  0.500  0.750  0.062-  41 1.50  63 2.35  77 2.35  67 2.35
  58  0.250  0.250  0.062-  42 1.50  68 2.35  71 2.35  65 2.35
  59  0.750  0.250  0.062-  43 1.50  69 2.35  70 2.35  64 2.35
  60  0.250  0.750  0.062-  44 1.50  66 2.35  73 2.35  63 2.35
  61  0.750  0.750  0.062-  45 1.50  67 2.35  72 2.35  62 2.35
  62  0.833  0.833  0.083-  78 2.35  56 2.35  51 2.35  61 2.35
  63  0.333  0.833  0.083-  79 2.35  57 2.35  50 2.35  60 2.35
  64  0.833  0.333  0.083-  80 2.35  54 2.35  53 2.35  59 2.35
  65  0.333  0.333  0.083-  81 2.35  55 2.35  52 2.35  58 2.35
  66  0.083  0.833  0.083-  82 2.35  60 2.35  46 2.35  56 2.35
  67  0.583  0.833  0.083-  83 2.35  61 2.35  47 2.35  57 2.35
  68  0.083  0.333  0.083-  84 2.35  58 2.35  48 2.35  54 2.35
  69  0.583  0.333  0.083-  85 2.35  59 2.35  49 2.35  55 2.35
  70  0.833  0.083  0.083-  86 2.35  59 2.35  46 2.35  51 2.35
  71  0.333  0.083  0.083-  87 2.35  58 2.35  47 2.35  50 2.35
  72  0.833  0.583  0.083-  88 2.35  61 2.35  48 2.35  53 2.35
  73  0.333  0.583  0.083-  89 2.35  60 2.35  49 2.35  52 2.35
  74  0.083  0.083  0.083-  90 2.35  54 2.35  50 2.35  46 2.35
  75  0.583  0.083  0.083-  91 2.35  55 2.35  51 2.35  47 2.35
  76  0.083  0.583  0.083-  92 2.35  56 2.35  52 2.35  48 2.35
  77  0.583  0.583  0.083-  93 2.35  57 2.35  53 2.35  49 2.35
  78  0.833  0.833  0.146- 106 2.35  62 2.35 102 2.35  98 2.35
  79  0.333  0.833  0.146- 107 2.35  63 2.35 103 2.35  99 2.35
  80  0.833  0.333  0.146- 108 2.35  64 2.35 104 2.35 100 2.35
  81  0.333  0.333  0.146- 109 2.35  65 2.35 105 2.35 101 2.35
  82  0.083  0.833  0.146- 103 2.35  66 2.35  95 2.35 106 2.35
  83  0.583  0.833  0.146- 102 2.35  67 2.35  94 2.35 107 2.35
  84  0.083  0.333  0.146- 105 2.35  68 2.35  97 2.35 108 2.35
  85  0.583  0.333  0.146- 104 2.35  69 2.35  96 2.35 109 2.35
  86  0.833  0.083  0.146- 100 2.35  70 2.35  96 2.35 106 2.35
  87  0.333  0.083  0.146- 101 2.35  71 2.35  97 2.35 107 2.35
  88  0.833  0.583  0.146-  98 2.35  72 2.35  94 2.35 108 2.35
  89  0.333  0.583  0.146-  99 2.35  73 2.35  95 2.35 109 2.35
  90  0.083  0.083  0.146-  97 2.35  74 2.35 100 2.35 103 2.35
  91  0.583  0.083  0.146-  96 2.35  75 2.35 101 2.35 102 2.35
  92  0.083  0.583  0.146-  95 2.35  76 2.35  98 2.35 105 2.35
  93  0.583  0.583  0.146-  94 2.35  77 2.35  99 2.35 104 2.35
  94  0.667  0.667  0.167- 110 2.35  93 2.35  83 2.35  88 2.35
  95  0.167  0.667  0.167- 111 2.35  92 2.35  82 2.35  89 2.35
  96  0.667  0.167  0.167- 112 2.35  91 2.35  85 2.35  86 2.35
  97  0.167  0.167  0.167- 113 2.35  90 2.35  84 2.35  87 2.35
  98  0.917  0.667  0.167- 114 2.35  88 2.35  92 2.35  78 2.35
  99  0.417  0.667  0.167- 115 2.35  89 2.35  93 2.35  79 2.35
 100  0.917  0.167  0.167- 116 2.35  86 2.35  90 2.35  80 2.35
 101  0.417  0.167  0.167- 117 2.35  87 2.35  91 2.35  81 2.35
 102  0.667  0.917  0.167- 118 2.35  83 2.35  91 2.35  78 2.35
 103  0.167  0.917  0.167- 119 2.35  82 2.35  90 2.35  79 2.35
 104  0.667  0.417  0.167- 120 2.35  85 2.35  93 2.35  80 2.35
 105  0.167  0.417  0.167- 121 2.35  84 2.35  92 2.35  81 2.35
 106  0.917  0.917  0.167- 122 2.35  78 2.35  86 2.35  82 2.35
 107  0.417  0.917  0.167- 123 2.35  79 2.35  87 2.35  83 2.35
 108  0.917  0.417  0.167- 124 2.35  80 2.35  88 2.35  84 2.35
 109  0.417  0.417  0.167- 125 2.35  81 2.35  89 2.35  85 2.35
 110  0.667  0.666  0.229-  94 2.35 134 2.35 130 2.35 138 2.35
 111  0.167  0.666  0.229-  95 2.35 135 2.35 139 2.35 131 2.35
 112  0.667  0.167  0.229-  96 2.35 136 2.35 140 2.35 132 2.35
 113  0.167  0.167  0.229-  97 2.35 133 2.35 141 2.35 137 2.35
 114  0.917  0.666  0.229-  98 2.35 138 2.35 135 2.35 127 2.35
 115  0.417  0.666  0.229-  99 2.35 139 2.35 134 2.35 126 2.35
 116  0.917  0.167  0.229- 100 2.35 140 2.35 137 2.35 129 2.35
 117  0.417  0.167  0.229- 101 2.35 141 2.35 128 2.35 136 2.35
 118  0.667  0.916  0.229- 102 2.35 128 2.35 132 2.35 138 2.35
 119  0.167  0.916  0.229- 103 2.35 129 2.35 133 2.35 139 2.35
 120  0.667  0.416  0.229- 104 2.35 126 2.35 130 2.35 140 2.35
 121  0.167  0.416  0.229- 105 2.35 127 2.35 131 2.35 141 2.35
 122  0.917  0.916  0.229- 106 2.35 132 2.35 129 2.35 135 2.35
 123  0.417  0.916  0.229- 107 2.35 133 2.35 128 2.35 134 2.35
 124  0.917  0.416  0.229- 108 2.35 130 2.35 137 2.35 127 2.35
 125  0.417  0.416  0.229- 109 2.35 131 2.35 126 2.35 136 2.35
 126  0.500  0.500  0.250- 142 2.35 120 2.35 125 2.35 115 2.35
 127  0.000  0.500  0.250- 143 2.35 121 2.35 114 2.35 124 2.35
 128  0.500  1.000  0.250- 144 2.34 118 2.35 123 2.35 117 2.35
 129  0.000  1.000  0.250- 145 2.34 119 2.35 122 2.35 116 2.35
 130  0.750  0.500  0.250- 146 2.34 124 2.35 110 2.35 120 2.35
 131  0.250  0.500  0.250- 147 2.34 121 2.35 125 2.35 111 2.35
 132  0.750  1.000  0.250- 148 2.34 122 2.35 118 2.35 112 2.35
 133  0.250  1.000  0.250- 149 2.34 123 2.35 119 2.35 113 2.35
 134  0.500  0.750  0.250- 150 2.35 110 2.35 115 2.35 123 2.35
 135  0.000  0.750  0.250- 151 2.35 111 2.35 114 2.35 122 2.35
 136  0.500  0.250  0.250- 152 2.35 112 2.35 125 2.35 117 2.35
 137  0.000  0.250  0.250- 153 2.35 124 2.35 116 2.35 113 2.35
 138  0.750  0.750  0.250- 154 2.34 114 2.35 118 2.35 110 2.35
 139  0.250  0.750  0.250- 155 2.35 115 2.35 111 2.35 119 2.35
 140  0.750  0.250  0.250- 156 2.35 116 2.35 120 2.35 112 2.35
 141  0.250  0.250  0.250- 157 2.35 117 2.35 121 2.35 113 2.35
 142  0.500  0.500  0.312- 126 2.35 162 2.35 166 2.35 170 2.35
 143  0.001  0.500  0.312- 127 2.35 167 2.35 171 2.35 163 2.35
 144  0.501  1.000  0.312- 128 2.34 168 2.35 172 2.35 164 2.35
 145  0.001  1.000  0.312- 129 2.34 169 2.35 173 2.35 165 2.35
 146  0.750  0.500  0.312- 130 2.34 170 2.35 159 2.35 167 2.35
 147  0.250  0.500  0.312- 131 2.34 166 2.35 171 2.35 158 2.35
 148  0.751  1.000  0.312- 132 2.34 169 2.35 172 2.35 161 2.35
 149  0.251  1.000  0.312- 133 2.34 173 2.35 168 2.35 160 2.35
 150  0.501  0.750  0.312- 134 2.35 160 2.35 164 2.35 170 2.35
 151  0.000  0.750  0.312- 135 2.35 161 2.35 165 2.35 171 2.35
 152  0.501  0.250  0.312- 136 2.35 158 2.35 172 2.35 162 2.35
 153  0.000  0.250  0.312- 137 2.35 173 2.35 163 2.35 159 2.35
 154  0.750  0.750  0.312- 138 2.34 164 2.35 167 2.35 161 2.35
 155  0.251  0.750  0.312- 139 2.35 165 2.35 160 2.35 166 2.35
 156  0.750  0.250  0.312- 140 2.35 159 2.35 162 2.35 169 2.35
 157  0.251  0.250  0.312- 141 2.35 163 2.35 168 2.35 158 2.35
 158  0.334  0.333  0.333- 174 2.35 147 2.35 152 2.35 157 2.35
 159  0.833  0.333  0.333- 175 2.35 146 2.35 156 2.35 153 2.35
 160  0.334  0.833  0.333- 176 2.34 149 2.35 150 2.35 155 2.35
 161  0.834  0.833  0.333- 177 2.35 151 2.35 154 2.35 148 2.35
 162  0.584  0.333  0.333- 178 2.35 142 2.35 156 2.35 152 2.35
 163  0.084  0.333  0.333- 179 2.34 157 2.35 143 2.35 153 2.35
 164  0.584  0.833  0.333- 180 2.34 154 2.35 144 2.35 150 2.35
 165  0.084  0.833  0.333- 181 2.35 155 2.35 151 2.35 145 2.35
 166  0.334  0.583  0.333- 182 2.34 147 2.35 142 2.35 155 2.35
 167  0.834  0.583  0.333- 183 2.34 143 2.35 154 2.35 146 2.35
 168  0.334  0.083  0.333- 184 2.34 149 2.35 144 2.35 157 2.35
 169  0.834  0.083  0.333- 185 2.34 148 2.35 145 2.35 156 2.35
 170  0.584  0.583  0.333- 186 2.35 146 2.35 142 2.35 150 2.35
 171  0.084  0.583  0.333- 187 2.35 147 2.35 143 2.35 151 2.35
 172  0.584  0.083  0.333- 188 2.34 148 2.35 144 2.35 152 2.35
 173  0.084  0.083  0.333- 189 2.34 149 2.35 145 2.35 153 2.35
 174  0.334  0.333  0.396- 158 2.35 194 2.35 198 2.35 202 2.35
 175  0.833  0.333  0.396- 159 2.35 195 2.35 203 2.35 199 2.35
 176  0.334  0.833  0.396- 160 2.34 196 2.35 200 2.35 204 2.35
 177  0.834  0.833  0.396- 161 2.35 201 2.35 205 2.35 197 2.35
 178  0.584  0.333  0.396- 162 2.35 202 2.35 191 2.35 199 2.35
 179  0.084  0.333  0.396- 163 2.34 203 2.35 190 2.35 198 2.35
 180  0.584  0.833  0.396- 164 2.34 193 2.35 204 2.35 201 2.35
 181  0.084  0.833  0.396- 165 2.35 205 2.35 200 2.35 192 2.35
 182  0.334  0.583  0.396- 166 2.34 196 2.35 192 2.35 202 2.35
 183  0.834  0.583  0.396- 167 2.34 203 2.35 193 2.35 197 2.35
 184  0.334  0.083  0.396- 168 2.34 194 2.35 190 2.35 204 2.35
 185  0.834  0.083  0.396- 169 2.34 195 2.35 191 2.35 205 2.35
 186  0.584  0.582  0.396- 170 2.35 196 2.35 193 2.35 199 2.35
 187  0.084  0.583  0.396- 171 2.35 197 2.35 192 2.35 198 2.35
 188  0.584  0.083  0.396- 172 2.34 194 2.35 191 2.35 201 2.35
 189  0.084  0.083  0.395- 173 2.34 195 2.34 190 2.35 200 2.35
 190  0.167  0.166  0.417- 206 2.35 184 2.35 179 2.35 189 2.35
 191  0.668  0.166  0.416- 207 2.34 185 2.35 188 2.35 178 2.35
 192  0.167  0.666  0.417- 208 2.35 182 2.35 187 2.35 181 2.35
 193  0.667  0.666  0.417- 209 2.34 180 2.35 186 2.35 183 2.35
 194  0.417  0.166  0.416- 210 2.34 184 2.35 188 2.35 174 2.35
 195  0.918  0.166  0.416- 211 2.34 189 2.34 175 2.35 185 2.35
 196  0.417  0.666  0.416- 212 2.34 186 2.35 182 2.35 176 2.35
 197  0.917  0.666  0.417- 213 2.35 187 2.35 183 2.35 177 2.35
 198  0.167  0.416  0.417- 214 2.35 174 2.35 187 2.35 179 2.35
 199  0.667  0.416  0.417- 178 2.35 186 2.35 175 2.35 215 2.36
 200  0.167  0.916  0.417- 216 2.35 176 2.35 181 2.35 189 2.35
 201  0.667  0.916  0.417- 217 2.35 177 2.35 180 2.35 188 2.35
 202  0.418  0.416  0.417- 178 2.35 218 2.35 182 2.35 174 2.35
 203  0.918  0.416  0.416- 219 2.34 179 2.35 183 2.35 175 2.35
 204  0.417  0.916  0.417- 220 2.35 180 2.35 176 2.35 184 2.35
 205  0.917  0.916  0.417- 221 2.35 181 2.35 177 2.35 185 2.35
 206  0.168  0.166  0.479- 230 2.34 226 2.34 234 2.34 190 2.35
 207  0.668  0.166  0.479- 231 2.34 227 2.34 235 2.34 191 2.34
 208  0.168  0.666  0.479- 236 2.34 232 2.34 228 2.34 192 2.35
 209  0.667  0.666  0.479- 229 2.34 237 2.34 233 2.34 193 2.34
 210  0.418  0.166  0.479- 231 2.34 234 2.34 194 2.34 223 2.34
 211  0.918  0.166  0.478- 235 2.34 195 2.34 222 2.34 230 2.34
 212  0.417  0.666  0.478- 196 2.34 225 2.34 236 2.34 233 2.34
 213  0.918  0.666  0.479- 224 2.34 237 2.34 232 2.34 197 2.35
 214  0.168  0.416  0.479- 234 2.34 228 2.34 224 2.34 198 2.35
 215  0.666  0.417  0.480- 229 2.34 235 2.35 225 2.35 199 2.36
 216  0.167  0.916  0.479- 222 2.34 236 2.34 226 2.34 200 2.35
 217  0.668  0.916  0.479- 223 2.34 227 2.34 237 2.34 201 2.35
 218  0.419  0.417  0.479- 228 2.34 231 2.35 225 2.35 202 2.35
 219  0.918  0.416  0.479- 229 2.34 203 2.34 230 2.34 224 2.34
 220  0.418  0.916  0.479- 226 2.34 223 2.34 233 2.34 204 2.35
 221  0.918  0.916  0.479- 227 2.34 222 2.34 232 2.34 205 2.35
 222  0.001  1.000  0.499- 238 1.50 216 2.34 211 2.34 221 2.34
 223  0.501  0.999  0.499- 239 1.50 217 2.34 210 2.34 220 2.34
 224  0.001  0.499  0.499- 240 1.50 219 2.34 213 2.34 214 2.34
 225  0.499  0.502  0.501-  12 1.91 212 2.34 218 2.35 215 2.35
 226  0.251  0.999  0.499- 241 1.50 216 2.34 220 2.34 206 2.34
 227  0.751  0.999  0.499- 242 1.50 207 2.34 217 2.34 221 2.34
 228  0.251  0.499  0.500- 243 1.51 214 2.34 208 2.34 218 2.34
 229  0.752  0.499  0.499- 244 1.50 219 2.34 209 2.34 215 2.34
 230  0.001  0.249  0.499- 245 1.50 219 2.34 211 2.34 206 2.34
 231  0.501  0.249  0.499- 246 1.50 210 2.34 207 2.34 218 2.35
 232  0.001  0.749  0.500- 247 1.50 221 2.34 208 2.34 213 2.34
 233  0.501  0.749  0.499- 248 1.51 209 2.34 220 2.34 212 2.34
 234  0.251  0.249  0.499- 249 1.51 210 2.34 214 2.34 206 2.34
 235  0.752  0.248  0.499- 250 1.50 211 2.34 207 2.34 215 2.35
 236  0.251  0.749  0.499- 251 1.51 216 2.34 212 2.34 208 2.34
 237  0.751  0.749  0.499- 252 1.51 209 2.34 217 2.34 213 2.34
 238  0.000  0.001  0.539- 222 1.50
 239  0.500  0.000  0.540- 223 1.50
 240  0.000  0.499  0.540- 224 1.50
 241  0.251  0.999  0.540- 226 1.50
 242  0.751  1.000  0.540- 227 1.50
 243  0.251  0.499  0.540- 228 1.51
 244  0.755  0.500  0.539- 229 1.50
 245  1.000  0.249  0.539- 230 1.50
 246  0.502  0.246  0.539- 231 1.50
 247  0.001  0.749  0.540- 232 1.50
 248  0.501  0.748  0.539- 233 1.51
 249  0.252  0.249  0.540- 234 1.51
 250  0.758  0.242  0.539- 235 1.50
 251  0.252  0.749  0.539- 236 1.51
 252  0.751  0.749  0.540- 237 1.51
 

IMPORTANT INFORMATION: All symmetrisations will be switched off!
NOSYMM: (Re-)initialisation of all symmetry stuff for point group C_1.


----------------------------------------------------------------------------------------

                                     Primitive cell                                     

  volume of cell :    7646.9211

  direct lattice vectors                    reciprocal lattice vectors
    15.332987591  0.000000000  0.000000000     0.065218862 -0.037654127  0.000000000
     7.666493795 13.278756769  0.000000000     0.000000000  0.075308255  0.000000000
     0.000000000  0.000000000 37.557995829     0.000000000  0.000000000  0.026625489

  length of vectors
    15.332987591 15.332987591 37.557995829     0.075308255  0.075308255  0.026625489

  position of ions in fractional coordinates (direct lattice)
     0.574542120  0.419238002  0.610710654
     0.525823789  0.376054468  0.629745054
     0.623032472  0.463132075  0.629491550
     0.530900050  0.371687460  0.668233957
     0.627106489  0.459095655  0.667972465
     0.577477722  0.416186375  0.570562710
     0.581923022  0.412585568  0.686269543
     0.470850364  0.335396842  0.612564922
     0.669383656  0.512219986  0.611962727
     0.484294881  0.324880642  0.687015967
     0.678071149  0.501902937  0.686457913
     0.492893189  0.510159380  0.552195642
     0.426253450  0.291658054  0.631582848
     0.717125463  0.553248095  0.630674742
     0.433576928  0.285488300  0.669305511
     0.722095035  0.547741842  0.668438118
     0.576195488  0.348900888  0.561230753
     0.586387031  0.408306361  0.715311507
     0.463269264  0.339569656  0.583697753
     0.666551996  0.518037599  0.583048150
     0.490024023  0.321184808  0.716018984
     0.681144838  0.497316663  0.715486161
     0.650500584  0.405346644  0.561591669
     0.418353705  0.523363977  0.560530917
     0.495992659  0.577743364  0.560106654
     0.384796060  0.261380378  0.617591026
     0.751548945  0.590405175  0.616405834
     0.398519012  0.249763218  0.684032284
     0.760761301  0.580138378  0.682940836
     0.000001700  0.000010039  0.022459548
     0.499980558  0.000015675  0.022459428
     0.999998337  0.500009758  0.022459286
     0.500003552  0.499997775  0.022459175
     0.250010140  0.000007238  0.022459523
     0.750014882  0.999997995  0.022459345
     0.250009843  0.499996388  0.022459294
     0.750009341  0.499992936  0.022459213
     0.000005288  0.249983652  0.022459359
     0.500005043  0.249996017  0.022459171
     0.000004383  0.749986409  0.022459380
     0.500006455  0.749986220  0.022459239
     0.250025363  0.249971978  0.022459373
     0.750013251  0.249989844  0.022459233
     0.250017760  0.749984188  0.022459390
     0.750028165  0.749980720  0.022459237
     0.000000000  0.000000000  0.062500000
     0.500000000  0.000000000  0.062500000
     0.000000000  0.500000000  0.062500000
     0.500000000  0.500000000  0.062500000
     0.250000000  0.000000000  0.062500000
     0.750000000  0.000000000  0.062500000
     0.250000000  0.500000000  0.062500000
     0.750000000  0.500000000  0.062500000
     0.000000000  0.250000000  0.062500000
     0.500000000  0.250000000  0.062500000
     0.000000000  0.750000000  0.062500000
     0.500000000  0.750000000  0.062500000
     0.250000000  0.250000000  0.062500000
     0.750000000  0.250000000  0.062500000
     0.250000000  0.750000000  0.062500000
     0.750000000  0.750000000  0.062500000
     0.833333333  0.833333333  0.083333333
     0.333333333  0.833333333  0.083333333
     0.833333333  0.333333333  0.083333333
     0.333333333  0.333333333  0.083333333
     0.083333333  0.833333333  0.083333333
     0.583333333  0.833333333  0.083333333
     0.083333333  0.333333333  0.083333333
     0.583333333  0.333333333  0.083333333
     0.833333333  0.083333333  0.083333333
     0.333333333  0.083333333  0.083333333
     0.833333333  0.583333333  0.083333333
     0.333333333  0.583333333  0.083333333
     0.083333333  0.083333333  0.083333333
     0.583333333  0.083333333  0.083333333
     0.083333333  0.583333333  0.083333333
     0.583333333  0.583333333  0.083333333
     0.833333333  0.833333333  0.145833333
     0.333333333  0.833333333  0.145833333
     0.833333333  0.333333333  0.145833333
     0.333333333  0.333333333  0.145833333
     0.083333333  0.833333333  0.145833333
     0.583333333  0.833333333  0.145833333
     0.083333333  0.333333333  0.145833333
     0.583333333  0.333333333  0.145833333
     0.833333333  0.083333333  0.145833333
     0.333333333  0.083333333  0.145833333
     0.833333333  0.583333333  0.145833333
     0.333333333  0.583333333  0.145833333
     0.083333333  0.083333333  0.145833333
     0.583333333  0.083333333  0.145833333
     0.083333333  0.583333333  0.145833333
     0.583333333  0.583333333  0.145833333
     0.666666667  0.666666667  0.166666667
     0.166666667  0.666666667  0.166666667
     0.666666667  0.166666667  0.166666667
     0.166666667  0.166666667  0.166666667
     0.916666667  0.666666667  0.166666667
     0.416666667  0.666666667  0.166666667
     0.916666667  0.166666667  0.166666667
     0.416666667  0.166666667  0.166666667
     0.666666667  0.916666667  0.166666667
     0.166666667  0.916666667  0.166666667
     0.666666667  0.416666667  0.166666667
     0.166666667  0.416666667  0.166666667
     0.916666667  0.916666667  0.166666667
     0.416666667  0.916666667  0.166666667
     0.916666667  0.416666667  0.166666667
     0.416666667  0.416666667  0.166666667
     0.666916461  0.666494816  0.229116289
     0.166924088  0.666483760  0.229120509
     0.666908082  0.166508775  0.229128242
     0.166847829  0.166602894  0.229133656
     0.916934054  0.666486006  0.229120226
     0.416936168  0.666467453  0.229127270
     0.916920759  0.166500419  0.229133405
     0.416975356  0.166508314  0.229125630
     0.666926255  0.916471820  0.229103705
     0.166951871  0.916430335  0.229104470
     0.666916127  0.416486609  0.229118914
     0.166925074  0.416477789  0.229115459
     0.916957904  0.916454701  0.229113543
     0.417018967  0.916396517  0.229106953
     0.916933156  0.416496769  0.229120868
     0.416933729  0.416475705  0.229127111
     0.500284157  0.499792665  0.249976355
     0.000292746  0.499813693  0.249970846
     0.500288536  0.999798774  0.249937923
     0.000322730  0.999768458  0.249944153
     0.750281789  0.499812917  0.249941436
     0.250265194  0.499793847  0.249951487
     0.750293554  0.999770707  0.249922291
     0.250320740  0.999812045  0.249841440
     0.500321479  0.749726123  0.250004323
     0.000291383  0.749787168  0.249979439
     0.500298718  0.249842492  0.250024899
     0.000175864  0.249884909  0.250028125
     0.750280472  0.749809796  0.249953655
     0.250297742  0.749764459  0.249980814
     0.750260538  0.249826346  0.249980165
     0.250353460  0.249815040  0.249974424
     0.500487608  0.499637269  0.312418943
     0.000511034  0.499678858  0.312413145
     0.500502175  0.999634631  0.312365334
     0.000589968  0.999572727  0.312374101
     0.750474966  0.499695443  0.312368316
     0.250440636  0.499649071  0.312382872
     0.750513787  0.999577621  0.312342150
     0.250573868  0.999652012  0.312223047
     0.500554369  0.749517908  0.312462376
     0.000498882  0.749633576  0.312425616
     0.500529549  0.249732019  0.312491222
     0.000266408  0.249824312  0.312497928
     0.750471662  0.749684160  0.312388278
     0.250513820  0.749593956  0.312426816
     0.750434709  0.249695962  0.312424810
     0.250648128  0.249678247  0.312418445
     0.333883151  0.333115811  0.333333368
     0.833464326  0.333226281  0.333349650
     0.333772561  0.833122520  0.333146115
     0.833837653  0.832960057  0.333241094
     0.583877908  0.333091236  0.333354541
     0.083990902  0.332943296  0.333195156
     0.583828378  0.832990123  0.333221850
     0.083877023  0.832920640  0.333261411
     0.333823826  0.582852765  0.333238421
     0.833825541  0.583018757  0.333208229
     0.333837034  0.082898605  0.333153877
     0.833889649  0.082870132  0.333125712
     0.583988516  0.582745371  0.333301636
     0.083860425  0.582970831  0.333283707
     0.583905459  0.082896856  0.333187572
     0.084067716  0.082897066  0.333082826
     0.334163103  0.333096973  0.395802348
     0.833331704  0.333268703  0.395827206
     0.333900154  0.833086409  0.395547465
     0.834031913  0.832814075  0.395683681
     0.584103596  0.332997840  0.395829799
     0.084334284  0.332751494  0.395603891
     0.584009077  0.832861170  0.395651462
     0.084100706  0.832731669  0.395706143
     0.334026054  0.582635902  0.395667188
     0.834017651  0.582893274  0.395633821
     0.334023070  0.082679484  0.395570120
     0.834173568  0.082643091  0.395516146
     0.584205773  0.582479928  0.395759177
     0.084069539  0.582837303  0.395737285
     0.584155294  0.082688572  0.395602176
     0.084463370  0.082683323  0.395459641
     0.167498199  0.166129301  0.416559103
     0.667557285  0.166027100  0.416413871
     0.167479915  0.666069029  0.416685687
     0.667324655  0.666169722  0.416515511
     0.417342202  0.166055501  0.416321077
     0.917765732  0.166011271  0.416066331
     0.417237975  0.666310956  0.416212861
     0.917371361  0.666146388  0.416609660
     0.167469259  0.416178114  0.416680857
     0.666888234  0.416324937  0.417345356
     0.167371077  0.916191458  0.416553498
     0.667402993  0.916087739  0.416615237
     0.417674072  0.416245974  0.416910739
     0.917613615  0.416037082  0.416335034
     0.417401953  0.916104157  0.416599909
     0.917416792  0.916103919  0.416578144
     0.167680661  0.166012160  0.479040160
     0.668069235  0.165644398  0.478802878
     0.167796310  0.665863824  0.479171841
     0.667433932  0.666023940  0.478943579
     0.417536182  0.165740778  0.478682588
     0.918236113  0.165667532  0.478321878
     0.417490962  0.665616551  0.478485772
     0.917527594  0.666015769  0.479078974
     0.167752381  0.416076960  0.479165725
     0.665916627  0.416646570  0.480076832
     0.167490684  0.916100179  0.479014395
     0.667556433  0.915955171  0.479088392
     0.418555426  0.416598804  0.479453513
     0.918128107  0.415724037  0.478684577
     0.417591165  0.915843355  0.479085112
     0.917598906  0.915967400  0.479038243
     0.000765734  0.999620626  0.499314734
     0.500830473  0.999382450  0.499440881
     0.000906043  0.499274331  0.499469438
     0.499156767  0.501627305  0.501362922
     0.250887218  0.999331596  0.499483572
     0.750939512  0.999278597  0.499477267
     0.251464530  0.499064861  0.499618016
     0.751662752  0.499102719  0.499067287
     0.000813111  0.249233501  0.499244821
     0.501165309  0.248796699  0.498913013
     0.000984023  0.749286417  0.499515524
     0.500653470  0.748883905  0.499288582
     0.251202273  0.249248273  0.499432305
     0.752390665  0.248080227  0.499119930
     0.251227420  0.749393844  0.499334259
     0.750795913  0.749215722  0.499496109
     0.000191640  0.000750299  0.539368529
     0.500439938  0.000151921  0.539503008
     0.000294857  0.499103035  0.539533806
     0.250772309  0.999420664  0.539544337
     0.750607425  0.999906658  0.539532155
     0.250928557  0.499253234  0.539713973
     0.754711824  0.499708662  0.539078003
     0.999828955  0.249410315  0.539299913
     0.501897563  0.245541054  0.538933430
     0.000731800  0.749469634  0.539577769
     0.500842468  0.748327650  0.539379543
     0.251970291  0.248830403  0.539511637
     0.757797464  0.241973892  0.539039424
     0.251943365  0.749140086  0.539405688
     0.750634976  0.748990920  0.539572198

  ion indices of the primitive-cell ions
   primitive index   ion index
                 1           1
                 2           2
                 3           3
                 4           4
                 5           5
                 6           6
                 7           7
                 8           8
                 9           9
                10          10
                11          11
                12          12
                13          13
                14          14
                15          15
                16          16
                17          17
                18          18
                19          19
                20          20
                21          21
                22          22
                23          23
                24          24
                25          25
                26          26
                27          27
                28          28
                29          29
                30          30
                31          31
                32          32
                33          33
                34          34
                35          35
                36          36
                37          37
                38          38
                39          39
                40          40
                41          41
                42          42
                43          43
                44          44
                45          45
                46          46
                47          47
                48          48
                49          49
                50          50
                51          51
                52          52
                53          53
                54          54
                55          55
                56          56
                57          57
                58          58
                59          59
                60          60
                61          61
                62          62
                63          63
                64          64
                65          65
                66          66
                67          67
                68          68
                69          69
                70          70
                71          71
                72          72
                73          73
                74          74
                75          75
                76          76
                77          77
                78          78
                79          79
                80          80
                81          81
                82          82
                83          83
                84          84
                85          85
                86          86
                87          87
                88          88
                89          89
                90          90
                91          91
                92          92
                93          93
                94          94
                95          95
                96          96
                97          97
                98          98
                99          99
               100         100
               101         101
               102         102
               103         103
               104         104
               105         105
               106         106
               107         107
               108         108
               109         109
               110         110
               111         111
               112         112
               113         113
               114         114
               115         115
               116         116
               117         117
               118         118
               119         119
               120         120
               121         121
               122         122
               123         123
               124         124
               125         125
               126         126
               127         127
               128         128
               129         129
               130         130
               131         131
               132         132
               133         133
               134         134
               135         135
               136         136
               137         137
               138         138
               139         139
               140         140
               141         141
               142         142
               143         143
               144         144
               145         145
               146         146
               147         147
               148         148
               149         149
               150         150
               151         151
               152         152
               153         153
               154         154
               155         155
               156         156
               157         157
               158         158
               159         159
               160         160
               161         161
               162         162
               163         163
               164         164
               165         165
               166         166
               167         167
               168         168
               169         169
               170         170
               171         171
               172         172
               173         173
               174         174
               175         175
               176         176
               177         177
               178         178
               179         179
               180         180
               181         181
               182         182
               183         183
               184         184
               185         185
               186         186
               187         187
               188         188
               189         189
               190         190
               191         191
               192         192
               193         193
               194         194
               195         195
               196         196
               197         197
               198         198
               199         199
               200         200
               201         201
               202         202
               203         203
               204         204
               205         205
               206         206
               207         207
               208         208
               209         209
               210         210
               211         211
               212         212
               213         213
               214         214
               215         215
               216         216
               217         217
               218         218
               219         219
               220         220
               221         221
               222         222
               223         223
               224         224
               225         225
               226         226
               227         227
               228         228
               229         229
               230         230
               231         231
               232         232
               233         233
               234         234
               235         235
               236         236
               237         237
               238         238
               239         239
               240         240
               241         241
               242         242
               243         243
               244         244
               245         245
               246         246
               247         247
               248         248
               249         249
               250         250
               251         251
               252         252

----------------------------------------------------------------------------------------

 
 
 KPOINTS: auto                                    

Automatic generation of k-mesh.
 Grid dimensions read from file:
 generate k-points for:    7    7    1

 Generating k-lattice:

  Cartesian coordinates                     Fractional coordinates (reciprocal lattice)
     0.009316980 -0.005379161  0.000000000     0.142857143  0.000000000  0.000000000
     0.000000000  0.010758322  0.000000000     0.000000000  0.142857143  0.000000000
     0.000000000  0.000000000  0.026625489     0.000000000  0.000000000  1.000000000

  Length of vectors
     0.010758322  0.010758322  0.026625489

  Shift w.r.t. Gamma in fractional coordinates (k-lattice)
     0.000000000  0.000000000  0.000000000

 TETIRR: Found    144 inequivalent tetrahedra from      294
 
 Subroutine IBZKPT returns following result:
 ===========================================
 
 Found     25 irreducible k-points:
 
 Following reciprocal coordinates:
            Coordinates               Weight
  0.000000  0.000000  0.000000      1.000000
  0.142857  0.000000  0.000000      2.000000
  0.142857  0.142857  0.000000      2.000000
  0.000000  0.142857  0.000000      2.000000
  0.285714  0.000000  0.000000      2.000000
  0.285714  0.285714  0.000000      2.000000
  0.000000  0.285714  0.000000      2.000000
  0.428571  0.000000  0.000000      2.000000
  0.428571  0.428571  0.000000      2.000000
  0.000000  0.428571  0.000000      2.000000
  0.285714  0.142857  0.000000      2.000000
  0.142857  0.285714  0.000000      2.000000
 -0.142857  0.142857  0.000000      2.000000
  0.428571  0.142857  0.000000      2.000000
  0.285714  0.428571  0.000000      2.000000
 -0.142857  0.285714  0.000000      2.000000
  0.285714 -0.142857  0.000000      2.000000
 -0.142857 -0.428571  0.000000      2.000000
 -0.428571 -0.285714  0.000000      2.000000
 -0.428571  0.142857  0.000000      2.000000
  0.428571 -0.428571  0.000000      2.000000
 -0.142857  0.428571  0.000000      2.000000
 -0.428571  0.285714  0.000000      2.000000
  0.285714 -0.428571  0.000000      2.000000
 -0.285714  0.285714  0.000000      2.000000
 
 Following cartesian coordinates:
            Coordinates               Weight
  0.000000  0.000000  0.000000      1.000000
  0.009317 -0.005379  0.000000      2.000000
  0.009317  0.005379  0.000000      2.000000
  0.000000  0.010758  0.000000      2.000000
  0.018634 -0.010758  0.000000      2.000000
  0.018634  0.010758  0.000000      2.000000
  0.000000  0.021517  0.000000      2.000000
  0.027951 -0.016137  0.000000      2.000000
  0.027951  0.016137  0.000000      2.000000
  0.000000  0.032275  0.000000      2.000000
  0.018634  0.000000  0.000000      2.000000
  0.009317  0.016137  0.000000      2.000000
 -0.009317  0.016137  0.000000      2.000000
  0.027951 -0.005379  0.000000      2.000000
  0.018634  0.021517  0.000000      2.000000
 -0.009317  0.026896  0.000000      2.000000
  0.018634 -0.021517  0.000000      2.000000
 -0.009317 -0.026896  0.000000      2.000000
 -0.027951 -0.005379  0.000000      2.000000
 -0.027951  0.026896  0.000000      2.000000
  0.027951 -0.048412  0.000000      2.000000
 -0.009317  0.037654  0.000000      2.000000
 -0.027951  0.037654  0.000000      2.000000
  0.018634 -0.043033  0.000000      2.000000
 -0.018634  0.032275  0.000000      2.000000
 


--------------------------------------------------------------------------------------------------------




 Dimension of arrays:
   k-points           NKPTS =     25   k-points in BZ     NKDIM =     25   number of bands    NBANDS=    640
   number of dos      NEDOS =   4001   number of ions     NIONS =    252
   non local maximal  LDIM  =      6   non local SUM 2l+1 LMDIM =     18
   total plane-waves  NPLWV = ******
   max r-space proj   IRMAX =      1   max aug-charges    IRDMAX=  26818
   dimension x,y,z NGX =   120 NGY =  120 NGZ =  288
   dimension x,y,z NGXF=   240 NGYF=  240 NGZF=  576
   support grid    NGXF=   240 NGYF=  240 NGZF=  576
   ions per type =              16  29 192  15
   NGX,Y,Z   is equivalent  to a cutoff of  13.01, 13.01, 12.75 a.u.
   NGXF,Y,Z  is equivalent  to a cutoff of  26.02, 26.02, 25.50 a.u.

 SYSTEM =  Si_surface_6layer                       
 POSCAR =  4x4_si_surface_from540eV_1x1x1conv      

 Startparameter for this run:
   NWRITE =      2    write-flag & timer
   PREC   = accura    normal or accurate (medium, high low for compatibility)
   ISTART =      1    job   : 0-new  1-cont  2-samecut
   ICHARG =      1    charge: 1-file 2-atom 10-const
   ISPIN  =      2    spin polarized calculation?
   LNONCOLLINEAR =      F non collinear calculations
   LSORBIT =      F    spin-orbit coupling
   INIWAV =      1    electr: 0-lowe 1-rand  2-diag
   LASPH  =      F    aspherical Exc in radial PAW
 Electronic Relaxation 1
   ENCUT  =  540.0 eV  39.69 Ry    6.30 a.u.  29.05 29.05 71.16*2*pi/ulx,y,z
   ENINI  =  540.0     initial cutoff
   ENAUG  =  644.9 eV  augmentation charge cutoff
   NELM   =     60;   NELMIN=  5; NELMDL=  0     # of ELM steps 
   EDIFF  = 0.1E-06   stopping-criterion for ELM
   LREAL  =      F    real-space projection
   NLSPLINE    = F    spline interpolate recip. space projectors
   LCOMPAT=      F    compatible to vasp.4.4
   GGA_COMPAT  = T    GGA compatible to vasp.4.4-vasp.4.6
   LMAXPAW     = -100 max onsite density
   LMAXMIX     =    2 max onsite mixed and CHGCAR
   VOSKOWN=      0    Vosko Wilk Nusair interpolation
   ROPT   =    0.00000   0.00000   0.00000   0.00000
 Ionic relaxation
   EDIFFG = -.9E-02   stopping-criterion for IOM
   NSW    =      0    number of steps for IOM
   NBLOCK =      1;   KBLOCK =      1    inner block; outer block 
   IBRION =     -1    ionic relax: 0-MD 1-quasi-New 2-CG
   NFREE  =      0    steps in history (QN), initial steepest desc. (CG)
   ISIF   =      2    stress and relaxation
   IWAVPR =     10    prediction:  0-non 1-charg 2-wave 3-comb
   ISYM   =      0    0-nonsym 1-usesym 2-fastsym
   LCORR  =      T    Harris-Foulkes like correction to forces

   POTIM  = 0.2500    time-step for ionic-motion
   TEIN   =    0.0    initial temperature
   TEBEG  =    0.0;   TEEND  =   0.0 temperature during run
   SMASS  =  -3.00    Nose mass-parameter (am)
   estimated Nose-frequenzy (Omega)   =  0.10E-29 period in steps = 0.25E+47 mass=  -0.537E-26a.u.
   SCALEE = 1.0000    scale energy and forces
   NPACO  =    256;   APACO  = 10.0  distance and # of slots for P.C.
   PSTRESS=    0.0 pullay stress

  Mass of Ions in am
   POMASS =  12.01  1.00 28.09  1.00
  Ionic Valenz
   ZVAL   =   4.00  1.00  4.00  1.00
  Atomic Wigner-Seitz radii
   RWIGS  =  -1.00 -1.00 -1.00 -1.00
  virtual crystal weights 
   VCA    =   1.00  1.00  1.00  1.00
   NELECT =     876.0000    total number of electrons
   NUPDOWN=       2.0000    fix difference up-down

 DOS related values:
   EMIN   =  -5.00;   EMAX   =  3.00  energy-range for DOS
   EFERMI =   0.00
   ISMEAR =    -5;   SIGMA  =   0.01  broadening in eV -4-tet -1-fermi 0-gaus

 Electronic relaxation 2 (details)
   IALGO  =     38    algorithm
   LDIAG  =      T    sub-space diagonalisation (order eigenvalues)
   LSUBROT=      F    optimize rotation matrix (better conditioning)
   TURBO    =      0    0=normal 1=particle mesh
   IRESTART =      0    0=no restart 2=restart with 2 vectors
   NREBOOT  =      0    no. of reboots
   NMIN     =      0    reboot dimension
   EREF     =   0.00    reference energy to select bands
   IMIX   =      4    mixing-type and parameters
     AMIX     =   0.40;   BMIX     =  1.00
     AMIX_MAG =   1.60;   BMIX_MAG =  1.00
     AMIN     =   0.10
     WC   =   100.;   INIMIX=   1;  MIXPRE=   1;  MAXMIX= -45

 Intra band minimization:
   WEIMIN = 0.0000     energy-eigenvalue tresh-hold
   EBREAK =  0.39E-10  absolut break condition
   DEPER  =   0.30     relativ break condition  

   TIME   =   0.40     timestep for ELM

  volume/ion in A,a.u.               =      30.34       204.78
  Fermi-wavevector in a.u.,A,eV,Ry     =   0.795086  1.502494  8.601078  0.632161
  Thomas-Fermi vector in A             =   1.901345
 
 Write flags
   LWAVE        =      F    write WAVECAR
   LDOWNSAMPLE  =      F    k-point downsampling of WAVECAR
   LCHARG       =      F    write CHGCAR
   LVTOT        =      F    write LOCPOT, total local potential
   LVHAR        =      F    write LOCPOT, Hartree potential only
   LELF         =      F    write electronic localiz. function (ELF)
   LORBIT       =     11    0 simple, 1 ext, 2 COOP (PROOUT), +10 PAW based schemes


 Dipole corrections
   LMONO  =      F    monopole corrections only (constant potential shift)
   LDIPOL =      F    correct potential (dipole corrections)
   IDIPOL =      3    1-x, 2-y, 3-z, 4-all directions 
   EPSILON=  1.0000000 bulk dielectric constant

 Exchange correlation treatment:
   GGA     =    --    GGA type
   LEXCH   =     8    internal setting for exchange type
   LIBXC   =     F    Libxc                    
   VOSKOWN =     0    Vosko Wilk Nusair interpolation
   LHFCALC =     F    Hartree Fock is set to
   LHFONE  =     F    Hartree Fock one center treatment
   AEXX    =    0.0000 exact exchange contribution

 Linear response parameters
   LEPSILON=     F    determine dielectric tensor
   LRPA    =     F    only Hartree local field effects (RPA)
   LNABLA  =     F    use nabla operator in PAW spheres
   LVEL    =     F    velocity operator in full k-point grid
   CSHIFT  =0.1000    complex shift for real part using Kramers Kronig
   OMEGAMAX=  -1.0    maximum frequency
   DEG_THRESHOLD= 0.2000000E-02 threshold for treating states as degnerate
   RTIME   =   -0.100 relaxation time in fs
  (WPLASMAI=    0.000 imaginary part of plasma frequency in eV, 0.658/RTIME)
   DFIELD  = 0.0000000 0.0000000 0.0000000 field for delta impulse in time
 
  Optional k-point grid parameters
   LKPOINTS_OPT  =     F    use optional k-point grid
   KPOINTS_OPT_MODE=     1    mode for optional k-point grid
 
 Orbital magnetization related:
   ORBITALMAG=     F  switch on orbital magnetization
   LCHIMAG   =     F  perturbation theory with respect to B field
   DQ        =  0.001000  dq finite difference perturbation B field
   LLRAUG    =     F  two centre corrections for induced B field



--------------------------------------------------------------------------------------------------------


 Static calculation
 charge density and potential will be updated during run
 spin polarized calculation
 Variant of blocked Davidson
 Davidson routine will perform the subspace rotation
 perform sub-space diagonalisation
    after iterative eigenvector-optimisation
 modified Broyden-mixing scheme, WC =      100.0
 initial mixing is a Kerker type mixing with AMIX =  0.4000 and BMIX =      1.0000
 Hartree-type preconditioning will be used
 using additional bands          202
 reciprocal scheme for non local part
 use partial core corrections
 calculate Harris-corrections to forces 
   (improved forces if not selfconsistent)
 use gradient corrections 
 use of overlap-Matrix (Vanderbilt PP)
 Fermi weights with tetrahedron method with Bloechl corrections


--------------------------------------------------------------------------------------------------------


  energy-cutoff  :      540.00
  volume of cell :     7646.92
      direct lattice vectors                 reciprocal lattice vectors
    15.332987591  0.000000000  0.000000000     0.065218862 -0.037654127  0.000000000
     7.666493795 13.278756769  0.000000000     0.000000000  0.075308255  0.000000000
     0.000000000  0.000000000 37.557995829     0.000000000  0.000000000  0.026625489

  length of vectors
    15.332987591 15.332987591 37.557995829     0.075308255  0.075308255  0.026625489


 
 old parameters found on file WAVECAR:
  energy-cutoff  :      540.00
  volume of cell :     7646.92
      direct lattice vectors                 reciprocal lattice vectors
    15.332987591  0.000000000  0.000000000     0.065218862 -0.037654127  0.000000000
     7.666493795 13.278756769  0.000000000     0.000000000  0.075308255  0.000000000
     0.000000000  0.000000000 37.557995829     0.000000000  0.000000000  0.026625489

  length of vectors

 
 k-points in units of 2pi/SCALE and weight: auto                                    
   0.00000000  0.00000000  0.00000000       0.020
   0.00931698 -0.00537916  0.00000000       0.041
   0.00931698  0.00537916  0.00000000       0.041
   0.00000000  0.01075832  0.00000000       0.041
   0.01863396 -0.01075832  0.00000000       0.041
   0.01863396  0.01075832  0.00000000       0.041
   0.00000000  0.02151664  0.00000000       0.041
   0.02795094 -0.01613748  0.00000000       0.041
   0.02795094  0.01613748  0.00000000       0.041
   0.00000000  0.03227497  0.00000000       0.041
   0.01863396  0.00000000  0.00000000       0.041
   0.00931698  0.01613748  0.00000000       0.041
  -0.00931698  0.01613748  0.00000000       0.041
   0.02795094 -0.00537916  0.00000000       0.041
   0.01863396  0.02151664  0.00000000       0.041
  -0.00931698  0.02689581  0.00000000       0.041
   0.01863396 -0.02151664  0.00000000       0.041
  -0.00931698 -0.02689581  0.00000000       0.041
  -0.02795094 -0.00537916  0.00000000       0.041
  -0.02795094  0.02689581  0.00000000       0.041
   0.02795094 -0.04841245  0.00000000       0.041
  -0.00931698  0.03765413  0.00000000       0.041
  -0.02795094  0.03765413  0.00000000       0.041
   0.01863396 -0.04303329  0.00000000       0.041
  -0.01863396  0.03227497  0.00000000       0.041
 
 k-points in reciprocal lattice and weights: auto                                    
   0.00000000  0.00000000  0.00000000       0.020
   0.14285714  0.00000000  0.00000000       0.041
   0.14285714  0.14285714  0.00000000       0.041
   0.00000000  0.14285714  0.00000000       0.041
   0.28571429  0.00000000  0.00000000       0.041
   0.28571429  0.28571429  0.00000000       0.041
   0.00000000  0.28571429  0.00000000       0.041
   0.42857143  0.00000000  0.00000000       0.041
   0.42857143  0.42857143  0.00000000       0.041
   0.00000000  0.42857143  0.00000000       0.041
   0.28571429  0.14285714  0.00000000       0.041
   0.14285714  0.28571429  0.00000000       0.041
  -0.14285714  0.14285714  0.00000000       0.041
   0.42857143  0.14285714  0.00000000       0.041
   0.28571429  0.42857143  0.00000000       0.041
  -0.14285714  0.28571429  0.00000000       0.041
   0.28571429 -0.14285714  0.00000000       0.041
  -0.14285714 -0.42857143  0.00000000       0.041
  -0.42857143 -0.28571429  0.00000000       0.041
  -0.42857143  0.14285714  0.00000000       0.041
   0.42857143 -0.42857143  0.00000000       0.041
  -0.14285714  0.42857143  0.00000000       0.041
  -0.42857143  0.28571429  0.00000000       0.041
   0.28571429 -0.42857143  0.00000000       0.041
  -0.28571429  0.28571429  0.00000000       0.041
 
 position of ions in fractional coordinates (direct lattice) 
   0.57454212  0.41923800  0.61071065
   0.52582379  0.37605447  0.62974505
   0.62303247  0.46313207  0.62949155
   0.53090005  0.37168746  0.66823396
   0.62710649  0.45909566  0.66797247
   0.57747772  0.41618638  0.57056271
   0.58192302  0.41258557  0.68626954
   0.47085036  0.33539684  0.61256492
   0.66938366  0.51221999  0.61196273
   0.48429488  0.32488064  0.68701597
   0.67807115  0.50190294  0.68645791
   0.49289319  0.51015938  0.55219564
   0.42625345  0.29165805  0.63158285
   0.71712546  0.55324810  0.63067474
   0.43357693  0.28548830  0.66930551
   0.72209504  0.54774184  0.66843812
   0.57619549  0.34890089  0.56123075
   0.58638703  0.40830636  0.71531151
   0.46326926  0.33956966  0.58369775
   0.66655200  0.51803760  0.58304815
   0.49002402  0.32118481  0.71601898
   0.68114484  0.49731666  0.71548616
   0.65050058  0.40534664  0.56159167
   0.41835370  0.52336398  0.56053092
   0.49599266  0.57774336  0.56010665
   0.38479606  0.26138038  0.61759103
   0.75154895  0.59040518  0.61640583
   0.39851901  0.24976322  0.68403228
   0.76076130  0.58013838  0.68294084
   0.00000170  0.00001004  0.02245955
   0.49998056  0.00001568  0.02245943
   0.99999834  0.50000976  0.02245929
   0.50000355  0.49999777  0.02245917
   0.25001014  0.00000724  0.02245952
   0.75001488  0.99999800  0.02245935
   0.25000984  0.49999639  0.02245929
   0.75000934  0.49999294  0.02245921
   0.00000529  0.24998365  0.02245936
   0.50000504  0.24999602  0.02245917
   0.00000438  0.74998641  0.02245938
   0.50000646  0.74998622  0.02245924
   0.25002536  0.24997198  0.02245937
   0.75001325  0.24998984  0.02245923
   0.25001776  0.74998419  0.02245939
   0.75002816  0.74998072  0.02245924
   0.00000000  0.00000000  0.06250000
   0.50000000  0.00000000  0.06250000
   0.00000000  0.50000000  0.06250000
   0.50000000  0.50000000  0.06250000
   0.25000000  0.00000000  0.06250000
   0.75000000  0.00000000  0.06250000
   0.25000000  0.50000000  0.06250000
   0.75000000  0.50000000  0.06250000
   0.00000000  0.25000000  0.06250000
   0.50000000  0.25000000  0.06250000
   0.00000000  0.75000000  0.06250000
   0.50000000  0.75000000  0.06250000
   0.25000000  0.25000000  0.06250000
   0.75000000  0.25000000  0.06250000
   0.25000000  0.75000000  0.06250000
   0.75000000  0.75000000  0.06250000
   0.83333333  0.83333333  0.08333333
   0.33333333  0.83333333  0.08333333
   0.83333333  0.33333333  0.08333333
   0.33333333  0.33333333  0.08333333
   0.08333333  0.83333333  0.08333333
   0.58333333  0.83333333  0.08333333
   0.08333333  0.33333333  0.08333333
   0.58333333  0.33333333  0.08333333
   0.83333333  0.08333333  0.08333333
   0.33333333  0.08333333  0.08333333
   0.83333333  0.58333333  0.08333333
   0.33333333  0.58333333  0.08333333
   0.08333333  0.08333333  0.08333333
   0.58333333  0.08333333  0.08333333
   0.08333333  0.58333333  0.08333333
   0.58333333  0.58333333  0.08333333
   0.83333333  0.83333333  0.14583333
   0.33333333  0.83333333  0.14583333
   0.83333333  0.33333333  0.14583333
   0.33333333  0.33333333  0.14583333
   0.08333333  0.83333333  0.14583333
   0.58333333  0.83333333  0.14583333
   0.08333333  0.33333333  0.14583333
   0.58333333  0.33333333  0.14583333
   0.83333333  0.08333333  0.14583333
   0.33333333  0.08333333  0.14583333
   0.83333333  0.58333333  0.14583333
   0.33333333  0.58333333  0.14583333
   0.08333333  0.08333333  0.14583333
   0.58333333  0.08333333  0.14583333
   0.08333333  0.58333333  0.14583333
   0.58333333  0.58333333  0.14583333
   0.66666667  0.66666667  0.16666667
   0.16666667  0.66666667  0.16666667
   0.66666667  0.16666667  0.16666667
   0.16666667  0.16666667  0.16666667
   0.91666667  0.66666667  0.16666667
   0.41666667  0.66666667  0.16666667
   0.91666667  0.16666667  0.16666667
   0.41666667  0.16666667  0.16666667
   0.66666667  0.91666667  0.16666667
   0.16666667  0.91666667  0.16666667
   0.66666667  0.41666667  0.16666667
   0.16666667  0.41666667  0.16666667
   0.91666667  0.91666667  0.16666667
   0.41666667  0.91666667  0.16666667
   0.91666667  0.41666667  0.16666667
   0.41666667  0.41666667  0.16666667
   0.66691646  0.66649482  0.22911629
   0.16692409  0.66648376  0.22912051
   0.66690808  0.16650878  0.22912824
   0.16684783  0.16660289  0.22913366
   0.91693405  0.66648601  0.22912023
   0.41693617  0.66646745  0.22912727
   0.91692076  0.16650042  0.22913341
   0.41697536  0.16650831  0.22912563
   0.66692626  0.91647182  0.22910370
   0.16695187  0.91643033  0.22910447
   0.66691613  0.41648661  0.22911891
   0.16692507  0.41647779  0.22911546
   0.91695790  0.91645470  0.22911354
   0.41701897  0.91639652  0.22910695
   0.91693316  0.41649677  0.22912087
   0.41693373  0.41647571  0.22912711
   0.50028416  0.49979267  0.24997636
   0.00029275  0.49981369  0.24997085
   0.50028854  0.99979877  0.24993792
   0.00032273  0.99976846  0.24994415
   0.75028179  0.49981292  0.24994144
   0.25026519  0.49979385  0.24995149
   0.75029355  0.99977071  0.24992229
   0.25032074  0.99981205  0.24984144
   0.50032148  0.74972612  0.25000432
   0.00029138  0.74978717  0.24997944
   0.50029872  0.24984249  0.25002490
   0.00017586  0.24988491  0.25002813
   0.75028047  0.74980980  0.24995366
   0.25029774  0.74976446  0.24998081
[...]
   76        0.734   0.942   0.059   1.734
   77        0.734   0.942   0.059   1.734
   78        0.737   0.930   0.062   1.729
   79        0.737   0.930   0.062   1.729
   80        0.737   0.930   0.062   1.729
   81        0.737   0.930   0.062   1.729
   82        0.737   0.930   0.062   1.729
   83        0.737   0.930   0.062   1.729
   84        0.737   0.930   0.062   1.729
   85        0.737   0.930   0.062   1.729
   86        0.737   0.930   0.062   1.729
   87        0.737   0.930   0.062   1.729
   88        0.737   0.930   0.062   1.729
   89        0.737   0.930   0.062   1.729
   90        0.737   0.930   0.062   1.729
   91        0.737   0.930   0.062   1.729
   92        0.737   0.930   0.062   1.729
   93        0.737   0.930   0.062   1.729
   94        0.738   0.930   0.062   1.731
   95        0.738   0.930   0.062   1.731
   96        0.738   0.930   0.062   1.731
   97        0.738   0.930   0.062   1.731
   98        0.738   0.930   0.062   1.731
   99        0.738   0.930   0.062   1.731
  100        0.738   0.930   0.062   1.731
  101        0.738   0.930   0.062   1.731
  102        0.738   0.930   0.062   1.731
  103        0.738   0.930   0.062   1.731
  104        0.738   0.930   0.062   1.731
  105        0.738   0.930   0.062   1.731
  106        0.738   0.930   0.062   1.731
  107        0.738   0.930   0.062   1.731
  108        0.738   0.930   0.062   1.731
  109        0.738   0.930   0.062   1.731
  110        0.739   0.929   0.062   1.730
  111        0.739   0.929   0.062   1.730
  112        0.739   0.929   0.062   1.730
  113        0.739   0.929   0.062   1.730
  114        0.739   0.929   0.062   1.730
  115        0.739   0.929   0.062   1.730
  116        0.739   0.929   0.062   1.730
  117        0.739   0.929   0.062   1.730
  118        0.739   0.929   0.062   1.730
  119        0.739   0.929   0.062   1.730
  120        0.739   0.929   0.062   1.730
  121        0.739   0.929   0.062   1.730
  122        0.739   0.929   0.062   1.730
  123        0.739   0.929   0.062   1.730
  124        0.739   0.929   0.062   1.730
  125        0.739   0.929   0.062   1.730
  126        0.739   0.929   0.062   1.730
  127        0.739   0.929   0.062   1.730
  128        0.739   0.929   0.062   1.731
  129        0.739   0.929   0.062   1.730
  130        0.739   0.929   0.062   1.731
  131        0.739   0.929   0.062   1.731
  132        0.739   0.929   0.062   1.731
  133        0.739   0.930   0.063   1.731
  134        0.739   0.929   0.062   1.730
  135        0.739   0.929   0.062   1.730
  136        0.739   0.929   0.062   1.730
  137        0.739   0.929   0.062   1.730
  138        0.739   0.929   0.062   1.730
  139        0.739   0.929   0.062   1.730
  140        0.739   0.929   0.062   1.730
  141        0.739   0.929   0.062   1.730
  142        0.739   0.929   0.062   1.731
  143        0.739   0.929   0.062   1.730
  144        0.739   0.929   0.062   1.731
  145        0.739   0.929   0.062   1.731
  146        0.739   0.930   0.063   1.731
  147        0.739   0.929   0.063   1.731
  148        0.739   0.929   0.063   1.731
  149        0.739   0.930   0.063   1.732
  150        0.739   0.929   0.062   1.730
  151        0.739   0.929   0.062   1.730
  152        0.739   0.929   0.062   1.730
  153        0.739   0.928   0.062   1.729
  154        0.739   0.929   0.062   1.731
  155        0.739   0.929   0.062   1.730
  156        0.739   0.929   0.062   1.730
  157        0.739   0.929   0.062   1.730
  158        0.739   0.929   0.062   1.730
  159        0.739   0.929   0.062   1.730
  160        0.739   0.930   0.063   1.731
  161        0.739   0.929   0.062   1.730
  162        0.739   0.929   0.062   1.730
  163        0.739   0.930   0.063   1.731
  164        0.739   0.929   0.062   1.730
  165        0.739   0.929   0.062   1.730
  166        0.739   0.929   0.062   1.730
  167        0.739   0.929   0.062   1.731
  168        0.739   0.930   0.063   1.731
  169        0.739   0.930   0.063   1.731
  170        0.739   0.929   0.062   1.730
  171        0.739   0.929   0.062   1.730
  172        0.739   0.930   0.063   1.731
  173        0.739   0.930   0.063   1.731
  174        0.738   0.929   0.062   1.729
  175        0.738   0.928   0.062   1.729
  176        0.738   0.930   0.062   1.731
  177        0.738   0.930   0.062   1.730
  178        0.738   0.930   0.062   1.730
  179        0.738   0.930   0.062   1.731
  180        0.738   0.930   0.062   1.730
  181        0.738   0.930   0.062   1.730
  182        0.738   0.930   0.062   1.731
  183        0.738   0.930   0.062   1.730
  184        0.738   0.930   0.062   1.731
  185        0.738   0.930   0.062   1.731
  186        0.738   0.930   0.062   1.730
  187        0.738   0.930   0.062   1.730
  188        0.738   0.930   0.062   1.731
  189        0.738   0.931   0.062   1.732
  190        0.737   0.930   0.062   1.729
  191        0.737   0.931   0.062   1.730
  192        0.737   0.930   0.062   1.729
  193        0.737   0.931   0.062   1.730
  194        0.737   0.932   0.062   1.731
  195        0.737   0.933   0.063   1.732
  196        0.737   0.933   0.063   1.732
  197        0.737   0.930   0.062   1.729
  198        0.737   0.930   0.062   1.729
  199        0.737   0.926   0.061   1.724
  200        0.737   0.930   0.062   1.729
  201        0.737   0.930   0.062   1.729
  202        0.737   0.929   0.062   1.727
  203        0.737   0.932   0.062   1.731
  204        0.737   0.930   0.062   1.729
  205        0.737   0.930   0.062   1.729
  206        0.734   0.944   0.060   1.738
  207        0.734   0.946   0.060   1.740
  208        0.734   0.944   0.060   1.737
  209        0.734   0.945   0.060   1.739
  210        0.734   0.946   0.060   1.740
  211        0.734   0.948   0.060   1.742
  212        0.735   0.948   0.060   1.743
  213        0.734   0.944   0.060   1.738
  214        0.734   0.944   0.060   1.737
  215        0.734   0.940   0.059   1.733
  216        0.734   0.945   0.060   1.739
  217        0.734   0.945   0.060   1.738
  218        0.734   0.944   0.059   1.737
  219        0.734   0.946   0.060   1.740
  220        0.734   0.944   0.060   1.737
  221        0.734   0.945   0.060   1.738
  222        0.728   0.952   0.072   1.752
  223        0.728   0.951   0.071   1.751
  224        0.728   0.951   0.071   1.751
  225        0.730   0.939   0.085   1.754
  226        0.728   0.951   0.071   1.751
  227        0.728   0.952   0.071   1.751
  228        0.728   0.951   0.071   1.750
  229        0.729   0.953   0.072   1.754
  230        0.728   0.952   0.071   1.752
  231        0.729   0.952   0.072   1.753
  232        0.728   0.951   0.071   1.751
  233        0.728   0.951   0.071   1.750
  234        0.728   0.951   0.071   1.751
  235        0.729   0.952   0.072   1.753
  236        0.728   0.952   0.072   1.751
  237        0.728   0.951   0.071   1.751
  238        0.562   0.013   0.000   0.575
  239        0.562   0.013   0.000   0.575
  240        0.562   0.013   0.000   0.575
  241        0.562   0.013   0.000   0.575
  242        0.562   0.013   0.000   0.575
  243        0.562   0.013   0.000   0.575
  244        0.566   0.013   0.000   0.579
  245        0.562   0.013   0.000   0.575
  246        0.566   0.013   0.000   0.579
  247        0.562   0.013   0.000   0.575
  248        0.562   0.013   0.000   0.575
  249        0.562   0.013   0.000   0.575
  250        0.565   0.013   0.000   0.578
  251        0.562   0.013   0.000   0.575
  252        0.562   0.013   0.000   0.575
--------------------------------------------------
tot        180.488 208.155  12.176 400.819



 magnetization (x)

# of ion       s       p       d       tot
------------------------------------------
    1       -0.000  -0.001   0.000  -0.001
    2        0.000   0.000   0.000   0.000
    3        0.000   0.000   0.000   0.000
    4        0.000   0.000   0.000   0.000
    5        0.000   0.000   0.000   0.000
    6        0.000   0.000   0.000   0.000
    7       -0.000  -0.000   0.000  -0.000
    8       -0.000  -0.000   0.000  -0.000
    9       -0.000  -0.000   0.000  -0.000
   10       -0.000  -0.000   0.000  -0.000
   11       -0.000  -0.000   0.000  -0.000
   12        0.000  -0.000   0.000  -0.000
   13       -0.000  -0.000   0.000  -0.000
   14       -0.000  -0.000   0.000  -0.000
   15       -0.000  -0.000   0.000  -0.000
   16       -0.000  -0.000   0.000  -0.000
   17       -0.000   0.000   0.000  -0.000
   18        0.000  -0.000  -0.000   0.000
   19        0.000  -0.000   0.000   0.000
   20        0.000  -0.000   0.000   0.000
   21        0.000  -0.000  -0.000   0.000
   22        0.000  -0.000  -0.000   0.000
   23       -0.000   0.000   0.000  -0.000
   24        0.000   0.000   0.000   0.000
   25        0.000   0.000   0.000   0.000
   26        0.000  -0.000   0.000   0.000
   27        0.000  -0.000   0.000   0.000
   28        0.000  -0.000   0.000   0.000
   29        0.000  -0.000   0.000   0.000
   30       -0.000   0.000  -0.000  -0.000
   31       -0.000   0.000  -0.000  -0.000
   32       -0.000   0.000  -0.000  -0.000
   33       -0.000   0.000  -0.000  -0.000
   34       -0.000   0.000  -0.000  -0.000
   35       -0.000   0.000  -0.000  -0.000
   36       -0.000   0.000  -0.000  -0.000
   37       -0.000   0.000  -0.000  -0.000
   38       -0.000   0.000  -0.000  -0.000
   39       -0.000   0.000  -0.000  -0.000
   40       -0.000   0.000  -0.000  -0.000
   41       -0.000   0.000  -0.000  -0.000
   42       -0.000   0.000  -0.000  -0.000
   43       -0.000   0.000  -0.000  -0.000
   44       -0.000   0.000  -0.000  -0.000
   45       -0.000   0.000  -0.000  -0.000
   46        0.000   0.002   0.000   0.003
   47        0.000   0.002   0.000   0.003
   48        0.000   0.002   0.000   0.003
   49        0.000   0.002   0.000   0.003
   50        0.000   0.002   0.000   0.003
   51        0.000   0.002   0.000   0.003
   52        0.000   0.002   0.000   0.003
   53        0.000   0.002   0.000   0.003
   54        0.000   0.002   0.000   0.003
   55        0.000   0.002   0.000   0.003
   56        0.000   0.002   0.000   0.003
   57        0.000   0.002   0.000   0.003
   58        0.000   0.002   0.000   0.003
   59        0.000   0.002   0.000   0.003
   60        0.000   0.002   0.000   0.003
   61        0.000   0.002   0.000   0.003
   62        0.000   0.001   0.000   0.002
   63        0.000   0.001   0.000   0.002
   64        0.000   0.001   0.000   0.002
   65        0.000   0.001   0.000   0.002
   66        0.000   0.001   0.000   0.002
   67        0.000   0.001   0.000   0.002
   68        0.000   0.001   0.000   0.002
   69        0.000   0.001   0.000   0.002
   70        0.000   0.001   0.000   0.002
   71        0.000   0.001   0.000   0.002
   72        0.000   0.001   0.000   0.002
   73        0.000   0.001   0.000   0.002
   74        0.000   0.001   0.000   0.002
   75        0.000   0.001   0.000   0.002
   76        0.000   0.001   0.000   0.002
   77        0.000   0.001   0.000   0.002
   78        0.000   0.003   0.001   0.004
   79        0.000   0.003   0.001   0.004
   80        0.000   0.003   0.001   0.004
   81        0.000   0.003   0.001   0.004
   82        0.000   0.003   0.001   0.004
   83        0.000   0.003   0.001   0.004
   84        0.000   0.003   0.001   0.004
   85        0.000   0.003   0.001   0.004
   86        0.000   0.003   0.001   0.004
   87        0.000   0.003   0.001   0.004
   88        0.000   0.003   0.001   0.004
   89        0.000   0.003   0.001   0.004
   90        0.000   0.003   0.001   0.004
   91        0.000   0.003   0.001   0.004
   92        0.000   0.003   0.001   0.004
   93        0.000   0.003   0.001   0.004
   94        0.001   0.002   0.001   0.004
   95        0.001   0.002   0.001   0.004
   96        0.001   0.002   0.001   0.004
   97        0.001   0.002   0.001   0.004
   98        0.001   0.002   0.001   0.004
   99        0.001   0.002   0.001   0.004
  100        0.001   0.002   0.001   0.004
  101        0.001   0.002   0.001   0.004
  102        0.001   0.002   0.001   0.004
  103        0.001   0.002   0.001   0.004
  104        0.001   0.002   0.001   0.004
  105        0.001   0.002   0.001   0.004
  106        0.001   0.002   0.001   0.004
  107        0.001   0.002   0.001   0.004
  108        0.001   0.002   0.001   0.004
  109        0.001   0.002   0.001   0.004
  110        0.001   0.004   0.001   0.006
  111        0.001   0.004   0.001   0.006
  112        0.001   0.004   0.001   0.006
  113        0.001   0.004   0.001   0.006
  114        0.001   0.004   0.001   0.006
  115        0.001   0.004   0.001   0.006
  116        0.001   0.004   0.001   0.006
  117        0.001   0.004   0.001   0.006
  118        0.001   0.004   0.001   0.006
  119        0.001   0.004   0.001   0.006
  120        0.001   0.004   0.001   0.006
  121        0.001   0.004   0.001   0.006
  122        0.001   0.004   0.001   0.006
  123        0.001   0.004   0.001   0.006
  124        0.001   0.004   0.001   0.006
  125        0.001   0.004   0.001   0.006
  126        0.001   0.003   0.001   0.005
  127        0.001   0.003   0.001   0.005
  128        0.001   0.003   0.001   0.005
  129        0.001   0.003   0.001   0.005
  130        0.001   0.003   0.001   0.005
  131        0.001   0.003   0.001   0.005
  132        0.001   0.003   0.001   0.005
  133        0.001   0.003   0.001   0.005
  134        0.001   0.003   0.001   0.005
  135        0.001   0.003   0.001   0.005
  136        0.001   0.003   0.001   0.005
  137        0.001   0.003   0.001   0.005
  138        0.001   0.003   0.001   0.005
  139        0.001   0.003   0.001   0.005
  140        0.001   0.003   0.001   0.005
  141        0.001   0.003   0.001   0.005
  142        0.001   0.003   0.001   0.005
  143        0.001   0.003   0.001   0.005
  144        0.001   0.003   0.001   0.005
  145        0.001   0.003   0.001   0.005
  146        0.001   0.003   0.001   0.005
  147        0.001   0.003   0.001   0.005
  148        0.001   0.003   0.001   0.005
  149        0.001   0.003   0.001   0.005
  150        0.001   0.003   0.001   0.005
  151        0.001   0.003   0.001   0.005
  152        0.001   0.003   0.001   0.005
  153        0.001   0.003   0.001   0.005
  154        0.001   0.003   0.001   0.005
  155        0.001   0.003   0.001   0.005
  156        0.001   0.003   0.001   0.005
  157        0.001   0.003   0.001   0.005
  158        0.001   0.004   0.001   0.006
  159        0.001   0.004   0.001   0.006
  160        0.001   0.004   0.001   0.006
  161        0.001   0.004   0.001   0.006
  162        0.001   0.004   0.001   0.006
  163        0.001   0.004   0.001   0.006
  164        0.001   0.004   0.001   0.006
  165        0.001   0.004   0.001   0.006
  166        0.001   0.004   0.001   0.006
  167        0.001   0.004   0.001   0.006
  168        0.001   0.004   0.001   0.006
  169        0.001   0.004   0.001   0.006
  170        0.001   0.004   0.001   0.006
  171        0.001   0.004   0.001   0.006
  172        0.001   0.004   0.001   0.006
  173        0.001   0.004   0.001   0.006
  174        0.001   0.002   0.001   0.004
  175        0.001   0.002   0.001   0.004
  176        0.001   0.003   0.001   0.004
  177        0.001   0.002   0.001   0.004
  178        0.001   0.002   0.001   0.004
  179        0.001   0.002   0.001   0.004
  180        0.001   0.002   0.001   0.004
  181        0.001   0.002   0.001   0.004
  182        0.001   0.002   0.001   0.004
  183        0.001   0.002   0.001   0.004
  184        0.001   0.002   0.001   0.004
  185        0.001   0.002   0.001   0.004
  186        0.001   0.002   0.001   0.004
  187        0.001   0.002   0.001   0.004
  188        0.001   0.002   0.001   0.004
  189        0.001   0.002   0.001   0.004
  190        0.000   0.003   0.001   0.004
  191        0.000   0.003   0.001   0.004
  192        0.000   0.003   0.001   0.004
  193        0.000   0.003   0.001   0.004
  194        0.000   0.003   0.001   0.004
  195        0.000   0.003   0.001   0.004
  196        0.000   0.003   0.001   0.004
  197        0.000   0.003   0.001   0.004
  198        0.000   0.003   0.001   0.004
  199        0.000   0.003   0.001   0.004
  200        0.000   0.003   0.001   0.004
  201        0.000   0.003   0.001   0.004
  202        0.000   0.003   0.001   0.004
  203        0.000   0.003   0.001   0.004
  204        0.000   0.003   0.001   0.004
  205        0.000   0.003   0.001   0.004
  206        0.000   0.001   0.000   0.002
  207        0.000   0.001   0.000   0.002
  208        0.000   0.001   0.000   0.002
  209        0.000   0.001   0.000   0.002
  210        0.000   0.001   0.000   0.002
  211        0.000   0.001   0.000   0.002
  212        0.000   0.001   0.000   0.002
  213        0.000   0.001   0.000   0.002
  214        0.000   0.001   0.000   0.002
  215        0.000   0.001   0.000   0.002
  216        0.000   0.001   0.000   0.002
  217        0.000   0.001   0.000   0.002
  218        0.000   0.001   0.000   0.002
  219        0.000   0.001   0.000   0.002
  220        0.000   0.001   0.000   0.002
  221        0.000   0.001   0.000   0.002
  222        0.000   0.002   0.000   0.002
  223        0.000   0.002   0.000   0.002
  224        0.000   0.002   0.000   0.002
  225        0.000   0.002   0.000   0.003
  226        0.000   0.002   0.000   0.002
  227        0.000   0.002   0.000   0.002
  228        0.000   0.002   0.000   0.002
  229        0.000   0.002   0.000   0.002
  230        0.000   0.002   0.000   0.002
  231        0.000   0.002   0.000   0.003
  232        0.000   0.002   0.000   0.002
  233        0.000   0.002   0.000   0.002
  234        0.000   0.002   0.000   0.002
  235        0.000   0.002   0.000   0.003
  236        0.000   0.002   0.000   0.003
  237        0.000   0.002   0.000   0.002
  238       -0.000   0.000  -0.000   0.000
  239       -0.000   0.000  -0.000   0.000
  240       -0.000   0.000  -0.000   0.000
  241       -0.000   0.000  -0.000   0.000
  242       -0.000   0.000  -0.000   0.000
  243       -0.000   0.000  -0.000   0.000
  244       -0.000   0.000  -0.000   0.000
  245       -0.000   0.000  -0.000  -0.000
  246       -0.000   0.000  -0.000   0.000
  247       -0.000   0.000  -0.000   0.000
  248       -0.000   0.000  -0.000  -0.000
  249       -0.000   0.000  -0.000   0.000
  250       -0.000   0.000  -0.000  -0.000
  251       -0.000   0.000  -0.000  -0.000
  252       -0.000   0.000  -0.000  -0.000
--------------------------------------------------
tot          0.100   0.508   0.148   0.756
 
 BZINTS: Fermi energy:    1.542041;  878.000000 electrons
         Band energy:-0.404258E+04;  BLOECHL correction:   -0.021511
 BZINTS: Fermi energy:    0.413148;  874.000000 electrons
         Band energy:-0.403829E+04;  BLOECHL correction:   -0.012605

 total amount of memory used by VASP MPI-rank0  2646339. kBytes
=======================================================================

   base      :      30000. kBytes
   nonl-proj :    2011299. kBytes
   fftplans  :      65854. kBytes
   grid      :     179427. kBytes
   one-center:       3919. kBytes
   wavefun   :     355840. kBytes
 
  
  
 General timing and accounting informations for this job:
 ========================================================
  
                  Total CPU time used (sec):    64633.574
                            User time (sec):    64585.042
                          System time (sec):       48.532
                         Elapsed time (sec):    65461.834
  
                   Maximum memory used (kb):     3310236.
                   Average memory used (kb):          N/A
  
                          Minor page faults:        81346
                          Major page faults:           38
                 Voluntary context switches:        51126
