<?xml version="1.0" encoding="ISO-8859-1"?>
<modeling>
 <generator>
  <i name="program" type="string">vasp </i>
  <i name="version" type="string">6.3.2  </i>
  <i name="subversion" type="string">27Jun22 (build Oct 28 2022 14:47:18) complex                          parallel </i>
  <i name="platform" type="string">LinuxIFC </i>
  <i name="date" type="string">2023 04 08 </i>
  <i name="time" type="string">21:21:46 </i>
 </generator>
 <incar>
  <i type="string" name="SYSTEM">Si_surface_6layer</i>
  <i type="string" name="PREC">Accurate</i>
  <i type="int" name="NELMIN">     5</i>
  <i type="int" name="IBRION">     0</i>
  <i name="EDIFF">      0.00010000</i>
  <i name="EDIFFG">     -0.00950000</i>
  <i type="int" name="NSW">   100</i>
  <i type="int" name="ISIF">     2</i>
  <i type="int" name="ISYM">     0</i>
  <i name="ENCUT">    540.00000000</i>
  <i type="int" name="NBANDS">   640</i>
  <i name="POTIM">      1.00000000</i>
  <i name="TEBEG">    300.00000000</i>
  <i name="SMASS">     -1.00000000</i>
  <i type="int" name="ISMEAR">     0</i>
  <i name="SIGMA">      0.01000000</i>
  <i type="int" name="NWRITE">     1</i>
  <i type="int" name="IDIPOL">     3</i>
  <i type="int" name="IVDW">    12</i>
  <i type="int" name="MDALGO">     2</i>
 </incar>
 <primitive_cell>
  <structure name="primitive_cell" >
   <crystal>
    <varray name="basis" >
     <v>      15.33298779       0.00000000       0.00000000 </v>
     <v>       7.66649389      13.27875694       0.00000000 </v>
     <v>       0.00000000       0.00000000      41.55799484 </v>
    </varray>
    <i name="volume">   8461.33316923 </i>
    <varray name="rec_basis" >
     <v>       0.06521886      -0.03765413       0.00000000 </v>
     <v>       0.00000000       0.07530825       0.00000000 </v>
     <v>       0.00000000       0.00000000       0.02406276 </v>
    </varray>
   </crystal>
   <varray name="positions" >
    <v>       0.54899707       0.43096751       0.56460661 </v>
    <v>       0.47773614       0.42005360       0.54837841 </v>
    <v>       0.59886646       0.47197610       0.54951179 </v>
    <v>       0.45197474       0.45335992       0.51560926 </v>
    <v>       0.49914996       0.50163233       0.49803984 </v>
    <v>       0.57560754       0.50703909       0.51696187 </v>
    <v>       0.67413652       0.47676821       0.56738442 </v>
    <v>       0.73019401       0.51401372       0.55345786 </v>
    <v>       0.70977886       0.54721620       0.52208072 </v>
    <v>       0.63267421       0.54544755       0.50449711 </v>
    <v>       0.43268730       0.37388258       0.56552410 </v>
    <v>       0.36182304       0.35748972       0.55099934 </v>
    <v>       0.33602041       0.38737815       0.51960105 </v>
    <v>       0.37983041       0.43488574       0.50235599 </v>
    <v>       0.45293555       0.34955954       0.59026134 </v>
    <v>       0.32711112       0.32145877       0.56395954 </v>
    <v>       0.28096848       0.37306354       0.50906903 </v>
    <v>       0.35657788       0.45671231       0.47853699 </v>
    <v>       0.56757542       0.40494421       0.58933997 </v>
    <v>       0.61933176       0.57302200       0.48061073 </v>
    <v>       0.75354559       0.57514084       0.51115191 </v>
    <v>       0.69059730       0.45021379       0.59204441 </v>
    <v>       0.78927996       0.51685243       0.56684178 </v>
    <v>       0.99998885       0.00002140       0.02029931 </v>
    <v>       0.49996611       0.00002596       0.02029919 </v>
    <v>       0.99998683       0.50001699       0.02029906 </v>
    <v>       0.49998903       0.50000840       0.02029894 </v>
    <v>       0.24999756       0.00001707       0.02029927 </v>
    <v>       0.75000453       0.00000488       0.02029912 </v>
    <v>       0.24999690       0.50000370       0.02029906 </v>
    <v>       0.74999928       0.49999943       0.02029898 </v>
    <v>       0.99999344       0.24999049       0.02029913 </v>
    <v>       0.49998951       0.25000513       0.02029895 </v>
    <v>       0.99998957       0.74999523       0.02029916 </v>
    <v>       0.49999166       0.74999571       0.02029902 </v>
    <v>       0.25001457       0.24997726       0.02029914 </v>
    <v>       0.75000435       0.24999706       0.02029901 </v>
    <v>       0.25000754       0.74999350       0.02029916 </v>
    <v>       0.75002086       0.74998808       0.02029902 </v>
    <v>       0.00017303       0.00078846       0.48742524 </v>
    <v>       0.50043827       0.00019023       0.48755205 </v>
    <v>       0.00026345       0.49906859       0.48758039 </v>
    <v>       0.25077108       0.99942881       0.48759374 </v>
    <v>       0.75054920       0.99999732       0.48759267 </v>
    <v>       0.25100204       0.49921295       0.48775378 </v>
    <v>       0.75472224       0.49968758       0.48717275 </v>
    <v>       0.99977648       0.24945913       0.48737556 </v>
    <v>       0.50189614       0.24550763       0.48704499 </v>
    <v>       0.00074136       0.74948490       0.48763219 </v>
    <v>       0.50088280       0.74829948       0.48745319 </v>
    <v>       0.25204390       0.24880740       0.48756820 </v>
    <v>       0.75778836       0.24200663       0.48714179 </v>
    <v>       0.25197944       0.74911410       0.48747134 </v>
    <v>       0.75062364       0.74896169       0.48763010 </v>
    <v>       0.00000000       0.00000000       0.05648431 </v>
    <v>       0.50000000       0.00000000       0.05648431 </v>
    <v>       1.00000000       0.50000000       0.05648431 </v>
    <v>       0.50000000       0.50000000       0.05648431 </v>
    <v>       0.25000000       0.00000000       0.05648431 </v>
    <v>       0.75000000       0.00000000       0.05648431 </v>
    <v>       0.25000000       0.50000000       0.05648431 </v>
    <v>       0.75000000       0.50000000       0.05648431 </v>
    <v>       1.00000000       0.25000000       0.05648431 </v>
    <v>       0.50000000       0.25000000       0.05648431 </v>
    <v>       0.00000000       0.75000000       0.05648431 </v>
    <v>       0.50000000       0.75000000       0.05648431 </v>
    <v>       0.25000000       0.25000000       0.05648431 </v>
    <v>       0.75000000       0.25000000       0.05648431 </v>
    <v>       0.25000000       0.75000000       0.05648431 </v>
    <v>       0.75000000       0.75000000       0.05648431 </v>
    <v>       0.83333331       0.83333331       0.07531241 </v>
    <v>       0.33333334       0.83333331       0.07531241 </v>
    <v>       0.83333331       0.33333334       0.07531241 </v>
    <v>       0.33333334       0.33333334       0.07531241 </v>
    <v>       0.08333334       0.83333331       0.07531241 </v>
    <v>       0.58333331       0.83333331       0.07531241 </v>
    <v>       0.08333334       0.33333334       0.07531241 </v>
    <v>       0.58333331       0.33333334       0.07531241 </v>
    <v>       0.83333331       0.08333334       0.07531241 </v>
    <v>       0.33333334       0.08333334       0.07531241 </v>
    <v>       0.83333331       0.58333331       0.07531241 </v>
    <v>       0.33333334       0.58333331       0.07531241 </v>
    <v>       0.08333334       0.08333334       0.07531241 </v>
    <v>       0.58333331       0.08333334       0.07531241 </v>
    <v>       0.08333334       0.58333331       0.07531241 </v>
    <v>       0.58333331       0.58333331       0.07531241 </v>
    <v>       0.83333331       0.83333331       0.13179672 </v>
    <v>       0.33333334       0.83333331       0.13179672 </v>
    <v>       0.83333331       0.33333334       0.13179672 </v>
    <v>       0.33333334       0.33333334       0.13179672 </v>
    <v>       0.08333334       0.83333331       0.13179672 </v>
    <v>       0.58333331       0.83333331       0.13179672 </v>
    <v>       0.08333334       0.33333334       0.13179672 </v>
    <v>       0.58333331       0.33333334       0.13179672 </v>
    <v>       0.83333331       0.08333334       0.13179672 </v>
    <v>       0.33333334       0.08333334       0.13179672 </v>
    <v>       0.83333331       0.58333331       0.13179672 </v>
    <v>       0.33333334       0.58333331       0.13179672 </v>
    <v>       0.08333334       0.08333334       0.13179672 </v>
    <v>       0.58333331       0.08333334       0.13179672 </v>
    <v>       0.08333334       0.58333331       0.13179672 </v>
    <v>       0.58333331       0.58333331       0.13179672 </v>
    <v>       0.66666669       0.66666669       0.15062483 </v>
    <v>       0.16666667       0.66666669       0.15062483 </v>
    <v>       0.66666669       0.16666667       0.15062483 </v>
    <v>       0.16666667       0.16666667       0.15062483 </v>
    <v>       0.91666669       0.66666669       0.15062483 </v>
    <v>       0.41666666       0.66666669       0.15062483 </v>
    <v>       0.91666669       0.16666667       0.15062483 </v>
    <v>       0.41666666       0.16666667       0.15062483 </v>
    <v>       0.66666669       0.91666669       0.15062483 </v>
    <v>       0.16666667       0.91666669       0.15062483 </v>
    <v>       0.66666669       0.41666666       0.15062483 </v>
    <v>       0.16666667       0.41666666       0.15062483 </v>
    <v>       0.91666669       0.91666669       0.15062483 </v>
    <v>       0.41666666       0.91666669       0.15062483 </v>
    <v>       0.91666669       0.41666666       0.15062483 </v>
    <v>       0.41666666       0.41666666       0.15062483 </v>
    <v>       0.66691256       0.66650248       0.20705400 </v>
    <v>       0.16691388       0.66649014       0.20705898 </v>
    <v>       0.66690344       0.16650572       0.20706598 </v>
    <v>       0.16684061       0.16660814       0.20708179 </v>
    <v>       0.91692531       0.66649854       0.20705917 </v>
    <v>       0.41692519       0.66647869       0.20706536 </v>
    <v>       0.91692513       0.16650243       0.20707472 </v>
    <v>       0.41696414       0.16651435       0.20706744 </v>
    <v>       0.66691798       0.91648233       0.20704252 </v>
    <v>       0.16694951       0.91644073       0.20704633 </v>
    <v>       0.66691595       0.41648963       0.20705459 </v>
    <v>       0.16692059       0.41647589       0.20705572 </v>
    <v>       0.91694874       0.91646326       0.20705239 </v>
    <v>       0.41701031       0.91640425       0.20704821 </v>
    <v>       0.91693836       0.41649175       0.20706075 </v>
    <v>       0.41692036       0.41647944       0.20706344 </v>
    <v>       0.50027961       0.49979386       0.22588077 </v>
    <v>       0.00028667       0.49982324       0.22588116 </v>
    <v>       0.50028664       0.99980050       0.22585523 </v>
    <v>       0.00032078       0.99976605       0.22586109 </v>
    <v>       0.75028151       0.49981755       0.22585414 </v>
    <v>       0.25025454       0.49979892       0.22586794 </v>
    <v>       0.75028825       0.99977207       0.22584361 </v>
    <v>       0.25032210       0.99981099       0.22577891 </v>
    <v>       0.50031888       0.74973106       0.22591361 </v>
    <v>       0.00028389       0.74979836       0.22589213 </v>
    <v>       0.50029421       0.24984773       0.22593303 </v>
    <v>       0.00016690       0.24989246       0.22594903 </v>
    <v>       0.75026935       0.74982309       0.22586657 </v>
    <v>       0.25028658       0.74977243       0.22589330 </v>
    <v>       0.75025457       0.24982803       0.22588788 </v>
    <v>       0.25034884       0.24982284       0.22589789 </v>
    <v>       0.50049311       0.49963021       0.28230625 </v>
    <v>       0.00050731       0.49968964       0.28230852 </v>
    <v>       0.50051337       0.99962586       0.28226966 </v>
    <v>       0.00059072       0.99956340       0.28227770 </v>
    <v>       0.75046229       0.49970725       0.28226706 </v>
    <v>       0.25044429       0.49965557       0.28228563 </v>
    <v>       0.75051129       0.99957675       0.28225109 </v>
    <v>       0.25060219       0.99960679       0.28215271 </v>
    <v>       0.50056702       0.74950278       0.28235546 </v>
    <v>       0.00050130       0.74963838       0.28232342 </v>
    <v>       0.50053847       0.24974354       0.28238246 </v>
    <v>       0.00022542       0.24985044       0.28240287 </v>
    <v>       0.75046211       0.74969256       0.28228703 </v>
    <v>       0.25051790       0.74957991       0.28232458 </v>
    <v>       0.75041085       0.24970731       0.28231668 </v>
    <v>       0.25066370       0.24970363       0.28232852 </v>
    <v>       0.33391163       0.33313787       0.30122888 </v>
    <v>       0.83340478       0.33325410       0.30123815 </v>
    <v>       0.33380580       0.83306384       0.30105916 </v>
    <v>       0.83384037       0.83295310       0.30113372 </v>
    <v>       0.58387220       0.33310598       0.30124068 </v>
    <v>       0.08398665       0.33295631       0.30108732 </v>
    <v>       0.58382905       0.83298177       0.30112001 </v>
    <v>       0.08388577       0.83291119       0.30115694 </v>
    <v>       0.33384538       0.58284026       0.30112976 </v>
    <v>       0.83381855       0.58302647       0.30109686 </v>
    <v>       0.33384517       0.08289958       0.30104592 </v>
    <v>       0.83388197       0.08288339       0.30102268 </v>
    <v>       0.58398402       0.58273447       0.30118588 </v>
    <v>       0.08386202       0.58297580       0.30116987 </v>
    <v>       0.58390039       0.08290785       0.30108312 </v>
    <v>       0.08406826       0.08289581       0.30098030 </v>
    <v>       0.33418074       0.33310550       0.35768595 </v>
    <v>       0.83330208       0.33328211       0.35770240 </v>
    <v>       0.33392620       0.83304596       0.35745546 </v>
    <v>       0.83404028       0.83280462       0.35756844 </v>
    <v>       0.58410829       0.33300060       0.35770884 </v>
    <v>       0.08433840       0.33275312       0.35748866 </v>
    <v>       0.58401769       0.83285373       0.35754406 </v>
    <v>       0.08410977       0.83272237       0.35759485 </v>
    <v>       0.33404392       0.58261967       0.35755709 </v>
    <v>       0.83402038       0.58289343       0.35751712 </v>
    <v>       0.33403048       0.08267270       0.35745555 </v>
    <v>       0.83417302       0.08264756       0.35741043 </v>
    <v>       0.58421284       0.58247036       0.35763907 </v>
    <v>       0.08408050       0.58283073       0.35761613 </v>
    <v>       0.58416659       0.08268412       0.35749295 </v>
    <v>       0.08446952       0.08268289       0.35735366 </v>
    <v>       0.16750237       0.16613117       0.37643415 </v>
    <v>       0.66756481       0.16602385       0.37631148 </v>
    <v>       0.16749164       0.66605622       0.37656033 </v>
    <v>       0.66733569       0.66616017       0.37640366 </v>
    <v>       0.41735119       0.16604814       0.37621719 </v>
    <v>       0.91776842       0.16601370       0.37598562 </v>
    <v>       0.41725954       0.66628063       0.37613526 </v>
    <v>       0.91737944       0.66613895       0.37648568 </v>
    <v>       0.16747475       0.41617343       0.37655130 </v>
    <v>       0.66688073       0.41633153       0.37716055 </v>
    <v>       0.16737956       0.91619408       0.37643155 </v>
    <v>       0.66741514       0.91608351       0.37649369 </v>
    <v>       0.41768873       0.41624343       0.37676761 </v>
    <v>       0.91761220       0.41603661       0.37622783 </v>
    <v>       0.41740480       0.91610116       0.37647602 </v>
    <v>       0.91741097       0.91610944       0.37645596 </v>
    <v>       0.16767903       0.16601868       0.43291587 </v>
    <v>       0.66807145       0.16565168       0.43270579 </v>
    <v>       0.16780026       0.66585839       0.43304405 </v>
    <v>       0.66744471       0.66602153       0.43283373 </v>
    <v>       0.41754016       0.16573933       0.43258429 </v>
    <v>       0.91823071       0.16568252       0.43225878 </v>
    <v>       0.41748381       0.66564184       0.43242371 </v>
    <v>       0.91753113       0.66601932       0.43295583 </v>
    <v>       0.16775914       0.41606766       0.43303540 </v>
    <v>       0.66592455       0.41664693       0.43386656 </v>
    <v>       0.16749258       0.91610831       0.43289244 </v>
    <v>       0.66757172       0.91595161       0.43296668 </v>
    <v>       0.41854984       0.41658720       0.43330127 </v>
    <v>       0.91812164       0.41572282       0.43258554 </v>
    <v>       0.41758928       0.91584700       0.43295985 </v>
    <v>       0.91758442       0.91597575       0.43291706 </v>
    <v>       0.00075770       0.99963510       0.45123613 </v>
    <v>       0.50083554       0.99938810       0.45135513 </v>
    <v>       0.00090027       0.49926621       0.45138118 </v>
    <v>       0.49915007       0.50163227       0.45311010 </v>
    <v>       0.25088090       0.99934745       0.45139840 </v>
    <v>       0.75093174       0.99929470       0.45140198 </v>
    <v>       0.25146520       0.49905613       0.45152673 </v>
    <v>       0.75167483       0.49909985       0.45102292 </v>
    <v>       0.00081279       0.24924050       0.45118353 </v>
    <v>       0.50116694       0.24878201       0.45088568 </v>
    <v>       0.00098027       0.74929774       0.45143420 </v>
    <v>       0.50066382       0.74889112       0.45122951 </v>
    <v>       0.25121620       0.24923368       0.45135483 </v>
    <v>       0.75239897       0.24808210       0.45107335 </v>
    <v>       0.25122124       0.74940705       0.45126650 </v>
    <v>       0.75080425       0.74921411       0.45141944 </v>
   </varray>
  </structure>
  <varray name="primitive_index" >
   <v type="int" >        1 </v>
   <v type="int" >        2 </v>
   <v type="int" >        3 </v>
   <v type="int" >        4 </v>
   <v type="int" >        5 </v>
   <v type="int" >        6 </v>
   <v type="int" >        7 </v>
   <v type="int" >        8 </v>
   <v type="int" >        9 </v>
   <v type="int" >       10 </v>
   <v type="int" >       11 </v>
   <v type="int" >       12 </v>
   <v type="int" >       13 </v>
   <v type="int" >       14 </v>
   <v type="int" >       15 </v>
   <v type="int" >       16 </v>
   <v type="int" >       17 </v>
   <v type="int" >       18 </v>
   <v type="int" >       19 </v>
   <v type="int" >       20 </v>
   <v type="int" >       21 </v>
   <v type="int" >       22 </v>
   <v type="int" >       23 </v>
   <v type="int" >       24 </v>
   <v type="int" >       25 </v>
   <v type="int" >       26 </v>
   <v type="int" >       27 </v>
   <v type="int" >       28 </v>
   <v type="int" >       29 </v>
   <v type="int" >       30 </v>
   <v type="int" >       31 </v>
   <v type="int" >       32 </v>
   <v type="int" >       33 </v>
   <v type="int" >       34 </v>
   <v type="int" >       35 </v>
   <v type="int" >       36 </v>
   <v type="int" >       37 </v>
   <v type="int" >       38 </v>
   <v type="int" >       39 </v>
   <v type="int" >       40 </v>
   <v type="int" >       41 </v>
   <v type="int" >       42 </v>
   <v type="int" >       43 </v>
   <v type="int" >       44 </v>
   <v type="int" >       45 </v>
   <v type="int" >       46 </v>
   <v type="int" >       47 </v>
   <v type="int" >       48 </v>
   <v type="int" >       49 </v>
   <v type="int" >       50 </v>
   <v type="int" >       51 </v>
   <v type="int" >       52 </v>
   <v type="int" >       53 </v>
   <v type="int" >       54 </v>
   <v type="int" >       55 </v>
   <v type="int" >       56 </v>
   <v type="int" >       57 </v>
   <v type="int" >       58 </v>
   <v type="int" >       59 </v>
   <v type="int" >       60 </v>
   <v type="int" >       61 </v>
   <v type="int" >       62 </v>
   <v type="int" >       63 </v>
   <v type="int" >       64 </v>
   <v type="int" >       65 </v>
   <v type="int" >       66 </v>
   <v type="int" >       67 </v>
   <v type="int" >       68 </v>
   <v type="int" >       69 </v>
   <v type="int" >       70 </v>
   <v type="int" >       71 </v>
   <v type="int" >       72 </v>
   <v type="int" >       73 </v>
   <v type="int" >       74 </v>
   <v type="int" >       75 </v>
   <v type="int" >       76 </v>
   <v type="int" >       77 </v>
   <v type="int" >       78 </v>
   <v type="int" >       79 </v>
   <v type="int" >       80 </v>
   <v type="int" >       81 </v>
   <v type="int" >       82 </v>
   <v type="int" >       83 </v>
   <v type="int" >       84 </v>
   <v type="int" >       85 </v>
   <v type="int" >       86 </v>
   <v type="int" >       87 </v>
   <v type="int" >       88 </v>
   <v type="int" >       89 </v>
   <v type="int" >       90 </v>
   <v type="int" >       91 </v>
   <v type="int" >       92 </v>
   <v type="int" >       93 </v>
   <v type="int" >       94 </v>
   <v type="int" >       95 </v>
   <v type="int" >       96 </v>
   <v type="int" >       97 </v>
   <v type="int" >       98 </v>
   <v type="int" >       99 </v>
   <v type="int" >      100 </v>
   <v type="int" >      101 </v>
   <v type="int" >      102 </v>
   <v type="int" >      103 </v>
   <v type="int" >      104 </v>
   <v type="int" >      105 </v>
   <v type="int" >      106 </v>
   <v type="int" >      107 </v>
   <v type="int" >      108 </v>
   <v type="int" >      109 </v>
   <v type="int" >      110 </v>
   <v type="int" >      111 </v>
   <v type="int" >      112 </v>
   <v type="int" >      113 </v>
   <v type="int" >      114 </v>
   <v type="int" >      115 </v>
   <v type="int" >      116 </v>
   <v type="int" >      117 </v>
   <v type="int" >      118 </v>
   <v type="int" >      119 </v>
   <v type="int" >      120 </v>
   <v type="int" >      121 </v>
   <v type="int" >      122 </v>
   <v type="int" >      123 </v>
   <v type="int" >      124 </v>
   <v type="int" >      125 </v>
   <v type="int" >      126 </v>
   <v type="int" >      127 </v>
   <v type="int" >      128 </v>
   <v type="int" >      129 </v>
   <v type="int" >      130 </v>
   <v type="int" >      131 </v>
   <v type="int" >      132 </v>
   <v type="int" >      133 </v>
   <v type="int" >      134 </v>
   <v type="int" >      135 </v>
   <v type="int" >      136 </v>
   <v type="int" >      137 </v>
   <v type="int" >      138 </v>
   <v type="int" >      139 </v>
   <v type="int" >      140 </v>
   <v type="int" >      141 </v>
   <v type="int" >      142 </v>
   <v type="int" >      143 </v>
   <v type="int" >      144 </v>
   <v type="int" >      145 </v>
   <v type="int" >      146 </v>
   <v type="int" >      147 </v>
   <v type="int" >      148 </v>
   <v type="int" >      149 </v>
   <v type="int" >      150 </v>
   <v type="int" >      151 </v>
   <v type="int" >      152 </v>
   <v type="int" >      153 </v>
   <v type="int" >      154 </v>
   <v type="int" >      155 </v>
   <v type="int" >      156 </v>
   <v type="int" >      157 </v>
   <v type="int" >      158 </v>
   <v type="int" >      159 </v>
   <v type="int" >      160 </v>
   <v type="int" >      161 </v>
   <v type="int" >      162 </v>
   <v type="int" >      163 </v>
   <v type="int" >      164 </v>
   <v type="int" >      165 </v>
   <v type="int" >      166 </v>
   <v type="int" >      167 </v>
   <v type="int" >      168 </v>
   <v type="int" >      169 </v>
   <v type="int" >      170 </v>
   <v type="int" >      171 </v>
   <v type="int" >      172 </v>
   <v type="int" >      173 </v>
   <v type="int" >      174 </v>
   <v type="int" >      175 </v>
   <v type="int" >      176 </v>
   <v type="int" >      177 </v>
   <v type="int" >      178 </v>
   <v type="int" >      179 </v>
   <v type="int" >      180 </v>
   <v type="int" >      181 </v>
   <v type="int" >      182 </v>
   <v type="int" >      183 </v>
   <v type="int" >      184 </v>
   <v type="int" >      185 </v>
   <v type="int" >      186 </v>
   <v type="int" >      187 </v>
   <v type="int" >      188 </v>
   <v type="int" >      189 </v>
   <v type="int" >      190 </v>
   <v type="int" >      191 </v>
   <v type="int" >      192 </v>
   <v type="int" >      193 </v>
   <v type="int" >      194 </v>
   <v type="int" >      195 </v>
   <v type="int" >      196 </v>
   <v type="int" >      197 </v>
   <v type="int" >      198 </v>
   <v type="int" >      199 </v>
   <v type="int" >      200 </v>
   <v type="int" >      201 </v>
   <v type="int" >      202 </v>
   <v type="int" >      203 </v>
   <v type="int" >      204 </v>
   <v type="int" >      205 </v>
   <v type="int" >      206 </v>
   <v type="int" >      207 </v>
   <v type="int" >      208 </v>
   <v type="int" >      209 </v>
   <v type="int" >      210 </v>
   <v type="int" >      211 </v>
   <v type="int" >      212 </v>
   <v type="int" >      213 </v>
   <v type="int" >      214 </v>
   <v type="int" >      215 </v>
   <v type="int" >      216 </v>
   <v type="int" >      217 </v>
   <v type="int" >      218 </v>
   <v type="int" >      219 </v>
   <v type="int" >      220 </v>
   <v type="int" >      221 </v>
   <v type="int" >      222 </v>
   <v type="int" >      223 </v>
   <v type="int" >      224 </v>
   <v type="int" >      225 </v>
   <v type="int" >      226 </v>
   <v type="int" >      227 </v>
   <v type="int" >      228 </v>
   <v type="int" >      229 </v>
   <v type="int" >      230 </v>
   <v type="int" >      231 </v>
   <v type="int" >      232 </v>
   <v type="int" >      233 </v>
   <v type="int" >      234 </v>
   <v type="int" >      235 </v>
   <v type="int" >      236 </v>
   <v type="int" >      237 </v>
   <v type="int" >      238 </v>
   <v type="int" >      239 </v>
   <v type="int" >      240 </v>
   <v type="int" >      241 </v>
   <v type="int" >      242 </v>
   <v type="int" >      243 </v>
   <v type="int" >      244 </v>
   <v type="int" >      245 </v>
   <v type="int" >      246 </v>
  </varray>
 </primitive_cell>
 <kpoints>
  <generation param="Gamma">
   <v type="int" name="divisions">       3        3        1 </v>
   <v name="usershift">      0.00000000       0.00000000       0.00000000 </v>
   <v name="genvec1">      0.33333333       0.00000000       0.00000000 </v>
   <v name="genvec2">      0.00000000       0.33333333       0.00000000 </v>
   <v name="genvec3">      0.00000000       0.00000000       1.00000000 </v>
   <v name="shift">      0.00000000       0.00000000       0.00000000 </v>
  </generation>
  <varray name="kpointlist" >
   <v>       0.00000000       0.00000000       0.00000000 </v>
   <v>       0.33333333       0.00000000       0.00000000 </v>
   <v>       0.33333333       0.33333333       0.00000000 </v>
   <v>       0.00000000       0.33333333       0.00000000 </v>
   <v>      -0.33333333       0.33333333       0.00000000 </v>
  </varray>
  <varray name="weights" >
   <v>       0.11111111 </v>
   <v>       0.22222222 </v>
   <v>       0.22222222 </v>
   <v>       0.22222222 </v>
   <v>       0.22222222 </v>
  </varray>
 </kpoints>
 <parameters>
  <separator name="general" >
   <i type="string" name="SYSTEM">Si_surface_6layer</i>
   <i type="logical" name="LCOMPAT"> F  </i>
  </separator>
  <separator name="electronic" >
   <i type="string" name="PREC">accura</i>
   <i name="ENMAX">    540.00000000</i>
   <i name="ENAUG">    644.87300000</i>
   <i name="EDIFF">      0.00010000</i>
   <i type="int" name="IALGO">    38</i>
   <i type="int" name="IWAVPR">    12</i>
   <i type="int" name="NBANDS">   640</i>
   <i type="int" name="NBANDSLOW">    -1</i>
   <i type="int" name="NBANDSHIGH">    -1</i>
   <i name="NELECT">    864.00000000</i>
   <i type="int" name="TURBO">     0</i>
   <i type="int" name="IRESTART">     0</i>
   <i type="int" name="NREBOOT">     0</i>
   <i type="int" name="NMIN">     0</i>
   <i name="EREF">      0.00000000</i>
   <separator name="electronic smearing" >
    <i type="int" name="ISMEAR">     0</i>
    <i name="SIGMA">      0.01000000</i>
    <i name="KSPACING">      0.50000000</i>
    <i type="logical" name="KGAMMA"> T  </i>
    <i type="logical" name="KBLOWUP"> T  </i>
   </separator>
   <separator name="electronic projectors" >
    <i type="logical" name="LREAL"> F  </i>
    <v name="ROPT">      0.00000000      0.00000000      0.00000000      0.00000000</v>
    <i type="int" name="LMAXPAW">  -100</i>
    <i type="int" name="LMAXMIX">     2</i>
    <i type="logical" name="NLSPLINE"> F  </i>
   </separator>
   <separator name="electronic startup" >
    <i type="int" name="ISTART">     0</i>
    <i type="int" name="ICHARG">     2</i>
    <i type="int" name="INIWAV">     1</i>
   </separator>
   <separator name="electronic spin" >
    <i type="int" name="ISPIN">     1</i>
    <i type="logical" name="LNONCOLLINEAR"> F  </i>
    <v name="MAGMOM">      1.00000000      1.00000000      1.00000000      1.00000000      1.00000000      1.00000000      1.00000000      1.00000000      1.00000000      1.00000000      1.00000000      1.00000000      1.00000000      1.00000000      1.00000000      1.00000000      1.00000000      1.00000000      1.00000000      1.00000000
      1.00000000      1.00000000      1.00000000      1.00000000      1.00000000      1.00000000      1.00000000      1.00000000      1.00000000      1.00000000      1.00000000      1.00000000      1.00000000      1.00000000      1.00000000      1.00000000      1.00000000      1.00000000      1.00000000      1.00000000
      1.00000000      1.00000000      1.00000000      1.00000000      1.00000000      1.00000000      1.00000000      1.00000000      1.00000000      1.00000000      1.00000000      1.00000000      1.00000000      1.00000000      1.00000000      1.00000000      1.00000000      1.00000000      1.00000000      1.00000000
      1.00000000      1.00000000      1.00000000      1.00000000      1.00000000      1.00000000      1.00000000      1.00000000      1.00000000      1.00000000      1.00000000      1.00000000      1.00000000      1.00000000      1.00000000      1.00000000      1.00000000      1.00000000      1.00000000      1.00000000
      1.00000000      1.00000000      1.00000000      1.00000000      1.00000000      1.00000000      1.00000000      1.00000000      1.00000000      1.00000000      1.00000000      1.00000000      1.00000000      1.00000000      1.00000000      1.00000000      1.00000000      1.00000000      1.00000000      1.00000000
      1.00000000      1.00000000      1.00000000      1.00000000      1.00000000      1.00000000      1.00000000      1.00000000      1.00000000      1.00000000      1.00000000      1.00000000      1.00000000      1.00000000      1.00000000      1.00000000      1.00000000      1.00000000      1.00000000      1.00000000
      1.00000000      1.00000000      1.00000000      1.00000000      1.00000000      1.00000000      1.00000000      1.00000000      1.00000000      1.00000000      1.00000000      1.00000000      1.00000000      1.00000000      1.00000000      1.00000000      1.00000000      1.00000000      1.00000000      1.00000000
      1.00000000      1.00000000      1.00000000      1.00000000      1.00000000      1.00000000      1.00000000      1.00000000      1.00000000      1.00000000      1.00000000      1.00000000      1.00000000      1.00000000      1.00000000      1.00000000      1.00000000      1.00000000      1.00000000      1.00000000
      1.00000000      1.00000000      1.00000000      1.00000000      1.00000000      1.00000000      1.00000000      1.00000000      1.00000000      1.00000000      1.00000000      1.00000000      1.00000000      1.00000000      1.00000000      1.00000000      1.00000000      1.00000000      1.00000000      1.00000000
      1.00000000      1.00000000      1.00000000      1.00000000      1.00000000      1.00000000      1.00000000      1.00000000      1.00000000      1.00000000      1.00000000      1.00000000      1.00000000      1.00000000      1.00000000      1.00000000      1.00000000      1.00000000      1.00000000      1.00000000
      1.00000000      1.00000000      1.00000000      1.00000000      1.00000000      1.00000000      1.00000000      1.00000000      1.00000000      1.00000000      1.00000000      1.00000000      1.00000000      1.00000000      1.00000000      1.00000000      1.00000000      1.00000000      1.00000000      1.00000000
      1.00000000      1.00000000      1.00000000      1.00000000      1.00000000      1.00000000      1.00000000      1.00000000      1.00000000      1.00000000      1.00000000      1.00000000      1.00000000      1.00000000      1.00000000      1.00000000      1.00000000      1.00000000      1.00000000      1.00000000
      1.00000000      1.00000000      1.00000000      1.00000000      1.00000000      1.00000000</v>
    <i name="NUPDOWN">     -1.00000000</i>
    <i type="logical" name="LSORBIT"> F  </i>
    <v name="SAXIS">      0.00000000      0.00000000      1.00000000</v>
    <i type="logical" name="LSPIRAL"> F  </i>
    <v name="QSPIRAL">      0.00000000      0.00000000      0.00000000</v>
    <i type="logical" name="LZEROZ"> F  </i>
   </separator>
   <separator name="electronic exchange-correlation" >
    <i type="logical" name="LASPH"> F  </i>
    <i type="logical" name="LMETAGGA"> F  </i>
   </separator>
   <separator name="electronic convergence" >
    <i type="int" name="NELM">    60</i>
    <i type="int" name="NELMDL">    -5</i>
    <i type="int" name="NELMIN">     5</i>
    <i name="ENINI">    540.00000000</i>
    <separator name="electronic convergence detail" >
     <i type="logical" name="LDIAG"> T  </i>
     <i type="logical" name="LSUBROT"> F  </i>
     <i name="WEIMIN">      0.00100000</i>
     <i name="EBREAK">      0.00000004</i>
     <i name="DEPER">      0.30000000</i>
     <i type="int" name="NRMM">     4</i>
     <i name="TIME">      0.40000000</i>
    </separator>
   </separator>
   <separator name="electronic mixer" >
    <i name="AMIX">      0.40000000</i>
    <i name="BMIX">      1.00000000</i>
    <i name="AMIN">      0.10000000</i>
    <i name="AMIX_MAG">      1.60000000</i>
    <i name="BMIX_MAG">      1.00000000</i>
    <separator name="electronic mixer details" >
     <i type="int" name="IMIX">     4</i>
     <i type="logical" name="MIXFIRST"> F  </i>
     <i type="int" name="MAXMIX">   -45</i>
     <i name="WC">    100.00000000</i>
     <i type="int" name="INIMIX">     1</i>
     <i type="int" name="MIXPRE">     1</i>
     <i type="int" name="MREMOVE">     5</i>
    </separator>
   </separator>
   <separator name="electronic dipolcorrection" >
    <i type="logical" name="LDIPOL"> F  </i>
    <i type="logical" name="LMONO"> F  </i>
    <i type="int" name="IDIPOL">     3</i>
    <i name="EPSILON">      1.00000000</i>
    <v name="DIPOL">   -100.00000000   -100.00000000   -100.00000000</v>
    <i name="EFIELD">      0.00000000</i>
   </separator>
  </separator>
  <separator name="grids" >
   <i type="int" name="NGX">   120</i>
   <i type="int" name="NGY">   120</i>
   <i type="int" name="NGZ">   320</i>
   <i type="int" name="NGXF">   240</i>
   <i type="int" name="NGYF">   240</i>
   <i type="int" name="NGZF">   640</i>
   <i type="logical" name="ADDGRID"> F  </i>
  </separator>
  <separator name="ionic" >
   <i type="int" name="NSW">   100</i>
   <i type="int" name="IBRION">     0</i>
   <i type="int" name="MDALGO">     2</i>
   <i type="int" name="ISIF">     2</i>
   <i name="PSTRESS">      0.00000000</i>
   <i name="EDIFFG">     -0.00950000</i>
   <i type="int" name="NFREE">     0</i>
   <i name="POTIM">      1.00000000</i>
   <i name="SMASS">     -1.00000000</i>
   <i name="SCALEE">      1.00000000</i>
  </separator>
  <separator name="ionic md" >
   <i name="TEBEG">    300.00000000</i>
   <i name="TEEND">    300.00000000</i>
   <i type="int" name="NBLOCK">     1</i>
   <i type="int" name="KBLOCK">   100</i>
   <i type="int" name="NPACO">   256</i>
   <i name="APACO">     10.00000000</i>
  </separator>
  <separator name="symmetry" >
   <i type="int" name="ISYM">     0</i>
   <i name="SYMPREC">      0.00001000</i>
  </separator>
  <separator name="dos" >
   <i type="int" name="LORBIT">     0</i>
   <v name="RWIGS">     -1.00000000     -1.00000000     -1.00000000     -1.00000000</v>
   <i type="int" name="NEDOS">   301</i>
   <i name="EMIN">     10.00000000</i>
   <i name="EMAX">    -10.00000000</i>
   <i name="EFERMI">      0.00000000</i>
  </separator>
  <separator name="writing" >
   <i type="int" name="NWRITE">     1</i>
   <i type="logical" name="LWAVE"> T  </i>
   <i type="logical" name="LDOWNSAMPLE"> F  </i>
   <i type="logical" name="LCHARG"> T  </i>
   <i type="logical" name="LPARD"> F  </i>
   <i type="logical" name="LVTOT"> F  </i>
   <i type="logical" name="LVHAR"> F  </i>
   <i type="logical" name="LELF"> F  </i>
   <i type="logical" name="LOPTICS"> F  </i>
   <v name="STM">      0.00000000      0.00000000      0.00000000      0.00000000      0.00000000      0.00000000      0.00000000</v>
  </separator>
  <separator name="performance" >
   <i type="int" name="NPAR">     8</i>
   <i type="int" name="NSIM">     4</i>
   <i type="int" name="NBLK">    -1</i>
   <i type="logical" name="LPLANE"> T  </i>
   <i type="logical" name="LSCALAPACK"> T  </i>
   <i type="logical" name="LSCAAWARE"> F  </i>
   <i type="logical" name="LSCALU"> F  </i>
   <i type="logical" name="LASYNC"> F  </i>
   <i type="logical" name="LORBITALREAL"> F  </i>
  </separator>
  <separator name="miscellaneous" >
   <i type="int" name="IDIOT">     3</i>
   <i type="int" name="PHON_NSTRUCT">    -1</i>
   <i type="logical" name="LMUSIC"> F  </i>
   <v name="POMASS">     12.01100000      1.00000000      1.00000000     28.08500000</v>
   <v name="DARWINR">      0.00000000      0.00000000      0.00000000      0.00000000</v>
   <v name="DARWINV">      1.00000000      1.00000000      1.00000000      1.00000000</v>
   <i type="logical" name="LCORR"> T  </i>
  </separator>
  <i type="logical" name="GGA_COMPAT"> T  </i>
  <i type="logical" name="LBERRY"> F  </i>
  <i type="int" name="ICORELEVEL">     0</i>
  <i type="logical" name="LDAU"> F  </i>
  <i type="int" name="I_CONSTRAINED_M">     0</i>
  <separator name="electronic exchange-correlation" >
   <i type="string" name="GGA">--</i>
   <i type="int" name="VOSKOWN">     0</i>
   <i type="logical" name="LHFCALC"> F  </i>
   <i type="string" name="PRECFOCK"></i>
   <i type="logical" name="LSYMGRAD"> F  </i>
   <i type="logical" name="LHFONE"> F  </i>
   <i type="logical" name="LRHFCALC"> F  </i>
   <i type="logical" name="LTHOMAS"> F  </i>
   <i type="logical" name="LMODELHF"> F  </i>
   <i type="logical" name="LFOCKACE"> F  </i>
   <i name="ENCUT4O">     -1.00000000</i>
   <i type="int" name="EXXOEP">     0</i>
   <i type="int" name="FOURORBIT">     0</i>
   <i name="AEXX">      0.00000000</i>
   <i name="HFALPHA">      0.00000000</i>
   <i name="MCALPHA">      0.00000000</i>
   <i name="ALDAX">      1.00000000</i>
   <i name="AGGAX">      1.00000000</i>
   <i name="ALDAC">      1.00000000</i>
   <i name="AGGAC">      1.00000000</i>
   <i type="int" name="NKREDX">     1</i>
   <i type="int" name="NKREDY">     1</i>
   <i type="int" name="NKREDZ">     1</i>
   <i type="logical" name="SHIFTRED"> F  </i>
   <i type="logical" name="ODDONLY"> F  </i>
   <i type="logical" name="EVENONLY"> F  </i>
   <i type="int" name="LMAXFOCK">     0</i>
   <i type="int" name="NMAXFOCKAE">     0</i>
   <i type="logical" name="LFOCKAEDFT"> F  </i>
   <i name="HFSCREEN">      0.00000000</i>
   <i name="HFSCREENC">      0.00000000</i>
   <i type="int" name="NBANDSGWLOW">     0</i>
  </separator>
  <separator name="vdW DFT" >
   <i type="logical" name="LUSE_VDW"> F  </i>
   <i name="Zab_VDW">     -0.84910000</i>
   <i name="PARAM1">      0.12340000</i>
   <i name="PARAM2">      1.00000000</i>
   <i name="PARAM3">      0.00000000</i>
  </separator>
  <separator name="model GW" >
   <i type="int" name="MODEL_GW">     0</i>
   <i name="MODEL_EPS0">     20.63739797</i>
   <i name="MODEL_ALPHA">      1.00000000</i>
  </separator>
  <separator name="linear response parameters" >
   <i type="logical" name="LEPSILON"> F  </i>
   <i type="logical" name="LRPA"> F  </i>
   <i type="logical" name="LNABLA"> F  </i>
   <i type="logical" name="LVEL"> F  </i>
   <i name="CSHIFT">      0.10000000</i>
   <i name="OMEGAMAX">     -1.00000000</i>
   <i name="DEG_THRESHOLD">      0.00200000</i>
   <i name="RTIME">     -0.10000000</i>
   <i name="WPLASMAI">      0.00000000</i>
   <v name="DFIELD">      0.00000000      0.00000000      0.00000000</v>
   <v name="WPLASMA">      0.00000000      0.00000000      0.00000000      0.00000000      0.00000000      0.00000000      0.00000000      0.00000000      0.00000000</v>
  </separator>
  <separator name="orbital magnetization" >
   <i type="logical" name="NUCIND"> F  </i>
   <v name="MAGPOS">      0.00000000      0.00000000      0.00000000</v>
   <i type="logical" name="LNICSALL"> T  </i>
   <i type="logical" name="ORBITALMAG"> F  </i>
   <i type="logical" name="LMAGBLOCH"> F  </i>
   <i type="logical" name="LCHIMAG"> F  </i>
   <i type="logical" name="LGAUGE"> T  </i>
   <i type="int" name="MAGATOM">     0</i>
   <v name="MAGDIPOL">      0.00000000      0.00000000      0.00000000</v>
   <v name="AVECCONST">      0.00000000      0.00000000      0.00000000</v>
  </separator>
  <separator name="response functions" >
   <i type="logical" name="LFINITE_TEMPERATURE"> F  </i>
   <i type="logical" name="LADDER"> F  </i>
   <i type="logical" name="LRPAFORCE"> F  </i>
   <i type="logical" name="LFXC"> F  </i>
   <i type="logical" name="LHARTREE"> T  </i>
   <i type="int" name="IBSE">     0</i>
   <v type="int" name="KPOINT">    -1     0     0     0</v>
   <i type="logical" name="LTCTC"> F  </i>
   <i type="logical" name="LTCTE"> F  </i>
   <i type="logical" name="LTETE"> F  </i>
   <i type="logical" name="LTRIPLET"> F  </i>
   <i type="logical" name="LFXCEPS"> F  </i>
   <i type="logical" name="LFXHEG"> F  </i>
   <i type="int" name="NATURALO">     2</i>
   <i type="logical" name="LHOLEGF"> F  </i>
   <i type="logical" name="L2ORDER"> F  </i>
   <i type="logical" name="LDMP1"> F  </i>
   <i type="logical" name="LMP2LT"> F  </i>
   <i type="logical" name="LSMP2LT"> F  </i>
   <i type="logical" name="LGWLF"> F  </i>
   <i name="ENCUTGW">     -2.00000000</i>
   <i name="ENCUTGWSOFT">     -2.00000000</i>
   <i name="ENCUTLF">     -1.00000000</i>
   <i type="logical" name="LESF_SPLINES"> F  </i>
   <i type="int" name="LMAXMP2">    -1</i>
   <i name="SCISSOR">      0.00000000</i>
   <i type="int" name="NOMEGA">     0</i>
   <i type="int" name="NOMEGAR">     0</i>
   <i type="int" name="NBANDSGW">    -1</i>
   <i type="int" name="NBANDSO">    -1</i>
   <i type="int" name="NBANDSV">    -1</i>
   <i type="int" name="NELMGW">     1</i>
   <i type="int" name="NELMHF">     1</i>
   <i type="int" name="DIM">     3</i>
   <i type="int" name="IESPILON">     4</i>
   <i type="int" name="ANTIRES">     0</i>
   <i name="OMEGAMAX">    -30.00000000</i>
   <i name="OMEGAMIN">    -30.00000000</i>
   <i name="OMEGATL">   -200.00000000</i>
   <i type="int" name="OMEGAGRID">     0</i>
   <i name="CSHIFT">     -0.10000000</i>
   <i type="logical" name="LSELFENERGY"> F  </i>
   <i type="logical" name="LSPECTRAL"> F  </i>
   <i type="logical" name="LSPECTRALGW"> F  </i>
   <i type="logical" name="LSINGLES"> F  </i>
   <i type="logical" name="LFERMIGW"> F  </i>
   <i type="logical" name="ODDONLYGW"> F  </i>
   <i type="logical" name="EVENONLYGW"> F  </i>
   <i type="int" name="NKREDLFX">     1</i>
   <i type="int" name="NKREDLFY">     1</i>
   <i type="int" name="NKREDLFZ">     1</i>
   <i type="int" name="MAXMEM">  2800</i>
   <i type="int" name="TELESCOPE">     0</i>
   <i type="int" name="NTAUPAR">    -1</i>
   <i type="int" name="NOMEGAPAR">    -1</i>
   <i name="DAMP_NEWTON">      0.80000001</i>
   <i name="LAMBDA">      1.00000000</i>
  </separator>
  <separator name="External order field" >
   <i name="OFIELD_KAPPA">      0.00000000</i>
   <v name="OFIELD_K">      0.00000000      0.00000000      0.00000000</v>
   <i name="OFIELD_Q6_NEAR">      0.00000000</i>
   <i name="OFIELD_Q6_FAR">      0.00000000</i>
   <i name="OFIELD_A">      0.00000000</i>
  </separator>
  <separator name="optional k-points parameters" >
   <i type="int" name="KPOINTS_OPT_MODE">     1</i>
   <i type="logical" name="LKPOINTS_OPT"> F  </i>
  </separator>
 </parameters>
 <atominfo>
  <atoms>     246 </atoms>
  <types>       4 </types>
  <array name="atoms" >
   <dimension dim="1">ion</dimension>
   <field type="string">element</field>
   <field type="int">atomtype</field>
   <set>
    <rc><c>C </c><c>   1</c></rc>
    <rc><c>C </c><c>   1</c></rc>
    <rc><c>C </c><c>   1</c></rc>
    <rc><c>C </c><c>   1</c></rc>
    <rc><c>C </c><c>   1</c></rc>
    <rc><c>C </c><c>   1</c></rc>
    <rc><c>C </c><c>   1</c></rc>
    <rc><c>C </c><c>   1</c></rc>
    <rc><c>C </c><c>   1</c></rc>
    <rc><c>C </c><c>   1</c></rc>
    <rc><c>C </c><c>   1</c></rc>
    <rc><c>C </c><c>   1</c></rc>
    <rc><c>C </c><c>   1</c></rc>
    <rc><c>C </c><c>   1</c></rc>
    <rc><c>H </c><c>   2</c></rc>
    <rc><c>H </c><c>   2</c></rc>
    <rc><c>H </c><c>   2</c></rc>
    <rc><c>H </c><c>   2</c></rc>
    <rc><c>H </c><c>   2</c></rc>
    <rc><c>H </c><c>   2</c></rc>
    <rc><c>H </c><c>   2</c></rc>
    <rc><c>H </c><c>   2</c></rc>
    <rc><c>H </c><c>   2</c></rc>
    <rc><c>H </c><c>   3</c></rc>
    <rc><c>H </c><c>   3</c></rc>
    <rc><c>H </c><c>   3</c></rc>
    <rc><c>H </c><c>   3</c></rc>
    <rc><c>H </c><c>   3</c></rc>
    <rc><c>H </c><c>   3</c></rc>
    <rc><c>H </c><c>   3</c></rc>
    <rc><c>H </c><c>   3</c></rc>
    <rc><c>H </c><c>   3</c></rc>
    <rc><c>H </c><c>   3</c></rc>
    <rc><c>H </c><c>   3</c></rc>
    <rc><c>H </c><c>   3</c></rc>
    <rc><c>H </c><c>   3</c></rc>
    <rc><c>H </c><c>   3</c></rc>
    <rc><c>H </c><c>   3</c></rc>
    <rc><c>H </c><c>   3</c></rc>
    <rc><c>H </c><c>   3</c></rc>
    <rc><c>H </c><c>   3</c></rc>
    <rc><c>H </c><c>   3</c></rc>
    <rc><c>H </c><c>   3</c></rc>
    <rc><c>H </c><c>   3</c></rc>
    <rc><c>H </c><c>   3</c></rc>
    <rc><c>H </c><c>   3</c></rc>
    <rc><c>H </c><c>   3</c></rc>
    <rc><c>H </c><c>   3</c></rc>
    <rc><c>H </c><c>   3</c></rc>
    <rc><c>H </c><c>   3</c></rc>
    <rc><c>H </c><c>   3</c></rc>
    <rc><c>H </c><c>   3</c></rc>
    <rc><c>H </c><c>   3</c></rc>
    <rc><c>H </c><c>   3</c></rc>
    <rc><c>Si</c><c>   4</c></rc>
    <rc><c>Si</c><c>   4</c></rc>
    <rc><c>Si</c><c>   4</c></rc>
    <rc><c>Si</c><c>   4</c></rc>
    <rc><c>Si</c><c>   4</c></rc>
    <rc><c>Si</c><c>   4</c></rc>
    <rc><c>Si</c><c>   4</c></rc>
    <rc><c>Si</c><c>   4</c></rc>
    <rc><c>Si</c><c>   4</c></rc>
    <rc><c>Si</c><c>   4</c></rc>
    <rc><c>Si</c><c>   4</c></rc>
    <rc><c>Si</c><c>   4</c></rc>
    <rc><c>Si</c><c>   4</c></rc>
    <rc><c>Si</c><c>   4</c></rc>
    <rc><c>Si</c><c>   4</c></rc>
    <rc><c>Si</c><c>   4</c></rc>
    <rc><c>Si</c><c>   4</c></rc>
    <rc><c>Si</c><c>   4</c></rc>
    <rc><c>Si</c><c>   4</c></rc>
    <rc><c>Si</c><c>   4</c></rc>
    <rc><c>Si</c><c>   4</c></rc>
    <rc><c>Si</c><c>   4</c></rc>
    <rc><c>Si</c><c>   4</c></rc>
    <rc><c>Si</c><c>   4</c></rc>
    <rc><c>Si</c><c>   4</c></rc>
    <rc><c>Si</c><c>   4</c></rc>
    <rc><c>Si</c><c>   4</c></rc>
    <rc><c>Si</c><c>   4</c></rc>
    <rc><c>Si</c><c>   4</c></rc>
    <rc><c>Si</c><c>   4</c></rc>
    <rc><c>Si</c><c>   4</c></rc>
    <rc><c>Si</c><c>   4</c></rc>
    <rc><c>Si</c><c>   4</c></rc>
    <rc><c>Si</c><c>   4</c></rc>
    <rc><c>Si</c><c>   4</c></rc>
    <rc><c>Si</c><c>   4</c></rc>
    <rc><c>Si</c><c>   4</c></rc>
    <rc><c>Si</c><c>   4</c></rc>
    <rc><c>Si</c><c>   4</c></rc>
    <rc><c>Si</c><c>   4</c></rc>
    <rc><c>Si</c><c>   4</c></rc>
    <rc><c>Si</c><c>   4</c></rc>
    <rc><c>Si</c><c>   4</c></rc>
    <rc><c>Si</c><c>   4</c></rc>
    <rc><c>Si</c><c>   4</c></rc>
    <rc><c>Si</c><c>   4</c></rc>
    <rc><c>Si</c><c>   4</c></rc>
    <rc><c>Si</c><c>   4</c></rc>
    <rc><c>Si</c><c>   4</c></rc>
    <rc><c>Si</c><c>   4</c></rc>
    <rc><c>Si</c><c>   4</c></rc>
    <rc><c>Si</c><c>   4</c></rc>
    <rc><c>Si</c><c>   4</c></rc>
    <rc><c>Si</c><c>   4</c></rc>
    <rc><c>Si</c><c>   4</c></rc>
    <rc><c>Si</c><c>   4</c></rc>
    <rc><c>Si</c><c>   4</c></rc>
    <rc><c>Si</c><c>   4</c></rc>
    <rc><c>Si</c><c>   4</c></rc>
    <rc><c>Si</c><c>   4</c></rc>
    <rc><c>Si</c><c>   4</c></rc>
    <rc><c>Si</c><c>   4</c></rc>
    <rc><c>Si</c><c>   4</c></rc>
    <rc><c>Si</c><c>   4</c></rc>
    <rc><c>Si</c><c>   4</c></rc>
    <rc><c>Si</c><c>   4</c></rc>
    <rc><c>Si</c><c>   4</c></rc>
    <rc><c>Si</c><c>   4</c></rc>
    <rc><c>Si</c><c>   4</c></rc>
    <rc><c>Si</c><c>   4</c></rc>
    <rc><c>Si</c><c>   4</c></rc>
    <rc><c>Si</c><c>   4</c></rc>
    <rc><c>Si</c><c>   4</c></rc>
    <rc><c>Si</c><c>   4</c></rc>
    <rc><c>Si</c><c>   4</c></rc>
    <rc><c>Si</c><c>   4</c></rc>
    <rc><c>Si</c><c>   4</c></rc>
    <rc><c>Si</c><c>   4</c></rc>
    <rc><c>Si</c><c>   4</c></rc>
    <rc><c>Si</c><c>   4</c></rc>
    <rc><c>Si</c><c>   4</c></rc>
    <rc><c>Si</c><c>   4</c></rc>
    <rc><c>Si</c><c>   4</c></rc>
    <rc><c>Si</c><c>   4</c></rc>
    <rc><c>Si</c><c>   4</c></rc>
    <rc><c>Si</c><c>   4</c></rc>
    <rc><c>Si</c><c>   4</c></rc>
    <rc><c>Si</c><c>   4</c></rc>
    <rc><c>Si</c><c>   4</c></rc>
    <rc><c>Si</c><c>   4</c></rc>
    <rc><c>Si</c><c>   4</c></rc>
    <rc><c>Si</c><c>   4</c></rc>
    <rc><c>Si</c><c>   4</c></rc>
    <rc><c>Si</c><c>   4</c></rc>
    <rc><c>Si</c><c>   4</c></rc>
    <rc><c>Si</c><c>   4</c></rc>
    <rc><c>Si</c><c>   4</c></rc>
    <rc><c>Si</c><c>   4</c></rc>
    <rc><c>Si</c><c>   4</c></rc>
    <rc><c>Si</c><c>   4</c></rc>
    <rc><c>Si</c><c>   4</c></rc>
    <rc><c>Si</c><c>   4</c></rc>
    <rc><c>Si</c><c>   4</c></rc>
    <rc><c>Si</c><c>   4</c></rc>
    <rc><c>Si</c><c>   4</c></rc>
    <rc><c>Si</c><c>   4</c></rc>
    <rc><c>Si</c><c>   4</c></rc>
    <rc><c>Si</c><c>   4</c></rc>
    <rc><c>Si</c><c>   4</c></rc>
    <rc><c>Si</c><c>   4</c></rc>
    <rc><c>Si</c><c>   4</c></rc>
    <rc><c>Si</c><c>   4</c></rc>
    <rc><c>Si</c><c>   4</c></rc>
    <rc><c>Si</c><c>   4</c></rc>
    <rc><c>Si</c><c>   4</c></rc>
    <rc><c>Si</c><c>   4</c></rc>
    <rc><c>Si</c><c>   4</c></rc>
    <rc><c>Si</c><c>   4</c></rc>
    <rc><c>Si</c><c>   4</c></rc>
    <rc><c>Si</c><c>   4</c></rc>
    <rc><c>Si</c><c>   4</c></rc>
    <rc><c>Si</c><c>   4</c></rc>
    <rc><c>Si</c><c>   4</c></rc>
    <rc><c>Si</c><c>   4</c></rc>
    <rc><c>Si</c><c>   4</c></rc>
    <rc><c>Si</c><c>   4</c></rc>
    <rc><c>Si</c><c>   4</c></rc>
    <rc><c>Si</c><c>   4</c></rc>
    <rc><c>Si</c><c>   4</c></rc>
    <rc><c>Si</c><c>   4</c></rc>
    <rc><c>Si</c><c>   4</c></rc>
    <rc><c>Si</c><c>   4</c></rc>
    <rc><c>Si</c><c>   4</c></rc>
    <rc><c>Si</c><c>   4</c></rc>
    <rc><c>Si</c><c>   4</c></rc>
    <rc><c>Si</c><c>   4</c></rc>
    <rc><c>Si</c><c>   4</c></rc>
    <rc><c>Si</c><c>   4</c></rc>
    <rc><c>Si</c><c>   4</c></rc>
    <rc><c>Si</c><c>   4</c></rc>
    <rc><c>Si</c><c>   4</c></rc>
    <rc><c>Si</c><c>   4</c></rc>
    <rc><c>Si</c><c>   4</c></rc>
    <rc><c>Si</c><c>   4</c></rc>
    <rc><c>Si</c><c>   4</c></rc>
    <rc><c>Si</c><c>   4</c></rc>
    <rc><c>Si</c><c>   4</c></rc>
    <rc><c>Si</c><c>   4</c></rc>
    <rc><c>Si</c><c>   4</c></rc>
    <rc><c>Si</c><c>   4</c></rc>
    <rc><c>Si</c><c>   4</c></rc>
    <rc><c>Si</c><c>   4</c></rc>
    <rc><c>Si</c><c>   4</c></rc>
    <rc><c>Si</c><c>   4</c></rc>
    <rc><c>Si</c><c>   4</c></rc>
    <rc><c>Si</c><c>   4</c></rc>
    <rc><c>Si</c><c>   4</c></rc>
    <rc><c>Si</c><c>   4</c></rc>
    <rc><c>Si</c><c>   4</c></rc>
    <rc><c>Si</c><c>   4</c></rc>
    <rc><c>Si</c><c>   4</c></rc>
    <rc><c>Si</c><c>   4</c></rc>
    <rc><c>Si</c><c>   4</c></rc>
    <rc><c>Si</c><c>   4</c></rc>
    <rc><c>Si</c><c>   4</c></rc>
    <rc><c>Si</c><c>   4</c></rc>
    <rc><c>Si</c><c>   4</c></rc>
    <rc><c>Si</c><c>   4</c></rc>
    <rc><c>Si</c><c>   4</c></rc>
    <rc><c>Si</c><c>   4</c></rc>
    <rc><c>Si</c><c>   4</c></rc>
    <rc><c>Si</c><c>   4</c></rc>
    <rc><c>Si</c><c>   4</c></rc>
    <rc><c>Si</c><c>   4</c></rc>
    <rc><c>Si</c><c>   4</c></rc>
    <rc><c>Si</c><c>   4</c></rc>
    <rc><c>Si</c><c>   4</c></rc>
    <rc><c>Si</c><c>   4</c></rc>
    <rc><c>Si</c><c>   4</c></rc>
    <rc><c>Si</c><c>   4</c></rc>
    <rc><c>Si</c><c>   4</c></rc>
    <rc><c>Si</c><c>   4</c></rc>
    <rc><c>Si</c><c>   4</c></rc>
    <rc><c>Si</c><c>   4</c></rc>
    <rc><c>Si</c><c>   4</c></rc>
    <rc><c>Si</c><c>   4</c></rc>
    <rc><c>Si</c><c>   4</c></rc>
    <rc><c>Si</c><c>   4</c></rc>
    <rc><c>Si</c><c>   4</c></rc>
    <rc><c>Si</c><c>   4</c></rc>
    <rc><c>Si</c><c>   4</c></rc>
    <rc><c>Si</c><c>   4</c></rc>
   </set>
  </array>
  <array name="atomtypes" >
   <dimension dim="1">type</dimension>
   <field type="int">atomspertype</field>
   <field type="string">element</field>
   <field>mass</field>
   <field>valence</field>
   <field type="string">pseudopotential</field>
   <set>
    <rc><c>  14</c><c>C </c><c>     12.01100000</c><c>      4.00000000</c><c>  PAW_PBE C_GW 28Sep2005                </c></rc>
    <rc><c>   9</c><c>H </c><c>      1.00000000</c><c>      1.00000000</c><c>  PAW_PBE H_GW 21Apr2008                </c></rc>
    <rc><c>  31</c><c>H </c><c>      1.00000000</c><c>      1.00000000</c><c>  PAW_PBE H_GW 21Apr2008                </c></rc>
    <rc><c> 192</c><c>Si</c><c>     28.08500000</c><c>      4.00000000</c><c>  PAW_PBE Si_GW 04May2012               </c></rc>
   </set>
  </array>
 </atominfo>
 <structure name="initialpos" >
  <crystal>
   <varray name="basis" >
    <v>      15.33298779       0.00000000       0.00000000 </v>
    <v>       7.66649389      13.27875694       0.00000000 </v>
    <v>       0.00000000       0.00000000      41.55799484 </v>
   </varray>
   <i name="volume">   8461.33316923 </i>
   <varray name="rec_basis" >
    <v>       0.06521886      -0.03765413       0.00000000 </v>
    <v>       0.00000000       0.07530825       0.00000000 </v>
    <v>       0.00000000       0.00000000       0.02406276 </v>
   </varray>
  </crystal>
  <varray name="positions" >
   <v>       0.54899707       0.43096751       0.56460661 </v>
   <v>       0.47773614       0.42005360       0.54837841 </v>
   <v>       0.59886646       0.47197610       0.54951179 </v>
   <v>       0.45197474       0.45335992       0.51560926 </v>
   <v>       0.49914996       0.50163233       0.49803984 </v>
   <v>       0.57560754       0.50703909       0.51696187 </v>
   <v>       0.67413652       0.47676821       0.56738442 </v>
   <v>       0.73019401       0.51401372       0.55345786 </v>
   <v>       0.70977886       0.54721620       0.52208072 </v>
   <v>       0.63267421       0.54544755       0.50449711 </v>
   <v>       0.43268730       0.37388258       0.56552410 </v>
   <v>       0.36182304       0.35748972       0.55099934 </v>
   <v>       0.33602041       0.38737815       0.51960105 </v>
   <v>       0.37983041       0.43488574       0.50235599 </v>
   <v>       0.45293555       0.34955954       0.59026134 </v>
   <v>       0.32711112       0.32145877       0.56395954 </v>
   <v>       0.28096848       0.37306354       0.50906903 </v>
   <v>       0.35657788       0.45671231       0.47853699 </v>
   <v>       0.56757542       0.40494421       0.58933997 </v>
   <v>       0.61933176       0.57302200       0.48061073 </v>
   <v>       0.75354559       0.57514084       0.51115191 </v>
   <v>       0.69059730       0.45021379       0.59204441 </v>
   <v>       0.78927996       0.51685243       0.56684178 </v>
   <v>       0.99998885       0.00002140       0.02029931 </v>
   <v>       0.49996611       0.00002596       0.02029919 </v>
   <v>       0.99998683       0.50001699       0.02029906 </v>
   <v>       0.49998903       0.50000840       0.02029894 </v>
   <v>       0.24999756       0.00001707       0.02029927 </v>
   <v>       0.75000453       0.00000488       0.02029912 </v>
   <v>       0.24999690       0.50000370       0.02029906 </v>
   <v>       0.74999928       0.49999943       0.02029898 </v>
   <v>       0.99999344       0.24999049       0.02029913 </v>
   <v>       0.49998951       0.25000513       0.02029895 </v>
   <v>       0.99998957       0.74999523       0.02029916 </v>
   <v>       0.49999166       0.74999571       0.02029902 </v>
   <v>       0.25001457       0.24997726       0.02029914 </v>
   <v>       0.75000435       0.24999706       0.02029901 </v>
   <v>       0.25000754       0.74999350       0.02029916 </v>
   <v>       0.75002086       0.74998808       0.02029902 </v>
   <v>       0.00017303       0.00078846       0.48742524 </v>
   <v>       0.50043827       0.00019023       0.48755205 </v>
   <v>       0.00026345       0.49906859       0.48758039 </v>
   <v>       0.25077108       0.99942881       0.48759374 </v>
   <v>       0.75054920       0.99999732       0.48759267 </v>
   <v>       0.25100204       0.49921295       0.48775378 </v>
   <v>       0.75472224       0.49968758       0.48717275 </v>
   <v>       0.99977648       0.24945913       0.48737556 </v>
   <v>       0.50189614       0.24550763       0.48704499 </v>
   <v>       0.00074136       0.74948490       0.48763219 </v>
   <v>       0.50088280       0.74829948       0.48745319 </v>
   <v>       0.25204390       0.24880740       0.48756820 </v>
   <v>       0.75778836       0.24200663       0.48714179 </v>
   <v>       0.25197944       0.74911410       0.48747134 </v>
   <v>       0.75062364       0.74896169       0.48763010 </v>
   <v>       0.00000000       0.00000000       0.05648431 </v>
   <v>       0.50000000       0.00000000       0.05648431 </v>
   <v>       1.00000000       0.50000000       0.05648431 </v>
   <v>       0.50000000       0.50000000       0.05648431 </v>
   <v>       0.25000000       0.00000000       0.05648431 </v>
   <v>       0.75000000       0.00000000       0.05648431 </v>
   <v>       0.25000000       0.50000000       0.05648431 </v>
   <v>       0.75000000       0.50000000       0.05648431 </v>
   <v>       1.00000000       0.25000000       0.05648431 </v>
   <v>       0.50000000       0.25000000       0.05648431 </v>
   <v>       0.00000000       0.75000000       0.05648431 </v>
   <v>       0.50000000       0.75000000       0.05648431 </v>
   <v>       0.25000000       0.25000000       0.05648431 </v>
   <v>       0.75000000       0.25000000       0.05648431 </v>
   <v>       0.25000000       0.75000000       0.05648431 </v>
   <v>       0.75000000       0.75000000       0.05648431 </v>
   <v>       0.83333331       0.83333331       0.07531241 </v>
   <v>       0.33333334       0.83333331       0.07531241 </v>
   <v>       0.83333331       0.33333334       0.07531241 </v>
   <v>       0.33333334       0.33333334       0.07531241 </v>
   <v>       0.08333334       0.83333331       0.07531241 </v>
   <v>       0.58333331       0.83333331       0.07531241 </v>
   <v>       0.08333334       0.33333334       0.07531241 </v>
   <v>       0.58333331       0.33333334       0.07531241 </v>
   <v>       0.83333331       0.08333334       0.07531241 </v>
   <v>       0.33333334       0.08333334       0.07531241 </v>
   <v>       0.83333331       0.58333331       0.07531241 </v>
   <v>       0.33333334       0.58333331       0.07531241 </v>
   <v>       0.08333334       0.08333334       0.07531241 </v>
   <v>       0.58333331       0.08333334       0.07531241 </v>
   <v>       0.08333334       0.58333331       0.07531241 </v>
   <v>       0.58333331       0.58333331       0.07531241 </v>
   <v>       0.83333331       0.83333331       0.13179672 </v>
   <v>       0.33333334       0.83333331       0.13179672 </v>
   <v>       0.83333331       0.33333334       0.13179672 </v>
   <v>       0.33333334       0.33333334       0.13179672 </v>
   <v>       0.08333334       0.83333331       0.13179672 </v>
   <v>       0.58333331       0.83333331       0.13179672 </v>
   <v>       0.08333334       0.33333334       0.13179672 </v>
   <v>       0.58333331       0.33333334       0.13179672 </v>
   <v>       0.83333331       0.08333334       0.13179672 </v>
   <v>       0.33333334       0.08333334       0.13179672 </v>
   <v>       0.83333331       0.58333331       0.13179672 </v>
   <v>       0.33333334       0.58333331       0.13179672 </v>
   <v>       0.08333334       0.08333334       0.13179672 </v>
   <v>       0.58333331       0.08333334       0.13179672 </v>
   <v>       0.08333334       0.58333331       0.13179672 </v>
   <v>       0.58333331       0.58333331       0.13179672 </v>
   <v>       0.66666669       0.66666669       0.15062483 </v>
   <v>       0.16666667       0.66666669       0.15062483 </v>
   <v>       0.66666669       0.16666667       0.15062483 </v>
   <v>       0.16666667       0.16666667       0.15062483 </v>
   <v>       0.91666669       0.66666669       0.15062483 </v>
   <v>       0.41666666       0.66666669       0.15062483 </v>
   <v>       0.91666669       0.16666667       0.15062483 </v>
   <v>       0.41666666       0.16666667       0.15062483 </v>
   <v>       0.66666669       0.91666669       0.15062483 </v>
   <v>       0.16666667       0.91666669       0.15062483 </v>
   <v>       0.66666669       0.41666666       0.15062483 </v>
   <v>       0.16666667       0.41666666       0.15062483 </v>
   <v>       0.91666669       0.91666669       0.15062483 </v>
   <v>       0.41666666       0.91666669       0.15062483 </v>
   <v>       0.91666669       0.41666666       0.15062483 </v>
   <v>       0.41666666       0.41666666       0.15062483 </v>
   <v>       0.66691256       0.66650248       0.20705400 </v>
   <v>       0.16691388       0.66649014       0.20705898 </v>
   <v>       0.66690344       0.16650572       0.20706598 </v>
   <v>       0.16684061       0.16660814       0.20708179 </v>
   <v>       0.91692531       0.66649854       0.20705917 </v>
   <v>       0.41692519       0.66647869       0.20706536 </v>
   <v>       0.91692513       0.16650243       0.20707472 </v>
   <v>       0.41696414       0.16651435       0.20706744 </v>
   <v>       0.66691798       0.91648233       0.20704252 </v>
   <v>       0.16694951       0.91644073       0.20704633 </v>
   <v>       0.66691595       0.41648963       0.20705459 </v>
   <v>       0.16692059       0.41647589       0.20705572 </v>
   <v>       0.91694874       0.91646326       0.20705239 </v>
   <v>       0.41701031       0.91640425       0.20704821 </v>
   <v>       0.91693836       0.41649175       0.20706075 </v>
   <v>       0.41692036       0.41647944       0.20706344 </v>
   <v>       0.50027961       0.49979386       0.22588077 </v>
   <v>       0.00028667       0.49982324       0.22588116 </v>
   <v>       0.50028664       0.99980050       0.22585523 </v>
   <v>       0.00032078       0.99976605       0.22586109 </v>
   <v>       0.75028151       0.49981755       0.22585414 </v>
   <v>       0.25025454       0.49979892       0.22586794 </v>
   <v>       0.75028825       0.99977207       0.22584361 </v>
   <v>       0.25032210       0.99981099       0.22577891 </v>
   <v>       0.50031888       0.74973106       0.22591361 </v>
   <v>       0.00028389       0.74979836       0.22589213 </v>
   <v>       0.50029421       0.24984773       0.22593303 </v>
   <v>       0.00016690       0.24989246       0.22594903 </v>
   <v>       0.75026935       0.74982309       0.22586657 </v>
   <v>       0.25028658       0.74977243       0.22589330 </v>
   <v>       0.75025457       0.24982803       0.22588788 </v>
   <v>       0.25034884       0.24982284       0.22589789 </v>
   <v>       0.50049311       0.49963021       0.28230625 </v>
   <v>       0.00050731       0.49968964       0.28230852 </v>
   <v>       0.50051337       0.99962586       0.28226966 </v>
   <v>       0.00059072       0.99956340       0.28227770 </v>
   <v>       0.75046229       0.49970725       0.28226706 </v>
   <v>       0.25044429       0.49965557       0.28228563 </v>
   <v>       0.75051129       0.99957675       0.28225109 </v>
   <v>       0.25060219       0.99960679       0.28215271 </v>
   <v>       0.50056702       0.74950278       0.28235546 </v>
   <v>       0.00050130       0.74963838       0.28232342 </v>
   <v>       0.50053847       0.24974354       0.28238246 </v>
   <v>       0.00022542       0.24985044       0.28240287 </v>
   <v>       0.75046211       0.74969256       0.28228703 </v>
   <v>       0.25051790       0.74957991       0.28232458 </v>
   <v>       0.75041085       0.24970731       0.28231668 </v>
   <v>       0.25066370       0.24970363       0.28232852 </v>
   <v>       0.33391163       0.33313787       0.30122888 </v>
   <v>       0.83340478       0.33325410       0.30123815 </v>
   <v>       0.33380580       0.83306384       0.30105916 </v>
   <v>       0.83384037       0.83295310       0.30113372 </v>
   <v>       0.58387220       0.33310598       0.30124068 </v>
   <v>       0.08398665       0.33295631       0.30108732 </v>
   <v>       0.58382905       0.83298177       0.30112001 </v>
   <v>       0.08388577       0.83291119       0.30115694 </v>
   <v>       0.33384538       0.58284026       0.30112976 </v>
   <v>       0.83381855       0.58302647       0.30109686 </v>
   <v>       0.33384517       0.08289958       0.30104592 </v>
   <v>       0.83388197       0.08288339       0.30102268 </v>
   <v>       0.58398402       0.58273447       0.30118588 </v>
   <v>       0.08386202       0.58297580       0.30116987 </v>
   <v>       0.58390039       0.08290785       0.30108312 </v>
   <v>       0.08406826       0.08289581       0.30098030 </v>
   <v>       0.33418074       0.33310550       0.35768595 </v>
   <v>       0.83330208       0.33328211       0.35770240 </v>
   <v>       0.33392620       0.83304596       0.35745546 </v>
   <v>       0.83404028       0.83280462       0.35756844 </v>
   <v>       0.58410829       0.33300060       0.35770884 </v>
   <v>       0.08433840       0.33275312       0.35748866 </v>
   <v>       0.58401769       0.83285373       0.35754406 </v>
   <v>       0.08410977       0.83272237       0.35759485 </v>
   <v>       0.33404392       0.58261967       0.35755709 </v>
   <v>       0.83402038       0.58289343       0.35751712 </v>
   <v>       0.33403048       0.08267270       0.35745555 </v>
   <v>       0.83417302       0.08264756       0.35741043 </v>
   <v>       0.58421284       0.58247036       0.35763907 </v>
   <v>       0.08408050       0.58283073       0.35761613 </v>
   <v>       0.58416659       0.08268412       0.35749295 </v>
   <v>       0.08446952       0.08268289       0.35735366 </v>
   <v>       0.16750237       0.16613117       0.37643415 </v>
   <v>       0.66756481       0.16602385       0.37631148 </v>
   <v>       0.16749164       0.66605622       0.37656033 </v>
   <v>       0.66733569       0.66616017       0.37640366 </v>
   <v>       0.41735119       0.16604814       0.37621719 </v>
   <v>       0.91776842       0.16601370       0.37598562 </v>
   <v>       0.41725954       0.66628063       0.37613526 </v>
   <v>       0.91737944       0.66613895       0.37648568 </v>
   <v>       0.16747475       0.41617343       0.37655130 </v>
   <v>       0.66688073       0.41633153       0.37716055 </v>
   <v>       0.16737956       0.91619408       0.37643155 </v>
   <v>       0.66741514       0.91608351       0.37649369 </v>
   <v>       0.41768873       0.41624343       0.37676761 </v>
   <v>       0.91761220       0.41603661       0.37622783 </v>
   <v>       0.41740480       0.91610116       0.37647602 </v>
   <v>       0.91741097       0.91610944       0.37645596 </v>
   <v>       0.16767903       0.16601868       0.43291587 </v>
   <v>       0.66807145       0.16565168       0.43270579 </v>
   <v>       0.16780026       0.66585839       0.43304405 </v>
   <v>       0.66744471       0.66602153       0.43283373 </v>
   <v>       0.41754016       0.16573933       0.43258429 </v>
   <v>       0.91823071       0.16568252       0.43225878 </v>
   <v>       0.41748381       0.66564184       0.43242371 </v>
   <v>       0.91753113       0.66601932       0.43295583 </v>
   <v>       0.16775914       0.41606766       0.43303540 </v>
   <v>       0.66592455       0.41664693       0.43386656 </v>
   <v>       0.16749258       0.91610831       0.43289244 </v>
   <v>       0.66757172       0.91595161       0.43296668 </v>
   <v>       0.41854984       0.41658720       0.43330127 </v>
   <v>       0.91812164       0.41572282       0.43258554 </v>
   <v>       0.41758928       0.91584700       0.43295985 </v>
   <v>       0.91758442       0.91597575       0.43291706 </v>
   <v>       0.00075770       0.99963510       0.45123613 </v>
   <v>       0.50083554       0.99938810       0.45135513 </v>
   <v>       0.00090027       0.49926621       0.45138118 </v>
   <v>       0.49915007       0.50163227       0.45311010 </v>
   <v>       0.25088090       0.99934745       0.45139840 </v>
   <v>       0.75093174       0.99929470       0.45140198 </v>
   <v>       0.25146520       0.49905613       0.45152673 </v>
   <v>       0.75167483       0.49909985       0.45102292 </v>
   <v>       0.00081279       0.24924050       0.45118353 </v>
   <v>       0.50116694       0.24878201       0.45088568 </v>
   <v>       0.00098027       0.74929774       0.45143420 </v>
   <v>       0.50066382       0.74889112       0.45122951 </v>
   <v>       0.25121620       0.24923368       0.45135483 </v>
   <v>       0.75239897       0.24808210       0.45107335 </v>
   <v>       0.25122124       0.74940705       0.45126650 </v>
   <v>       0.75080425       0.74921411       0.45141944 </v>
  </varray>
  <varray name="selective"  type="logical" >
   <v type="logical" >  T  T  T </v>
   <v type="logical" >  T  T  T </v>
   <v type="logical" >  T  T  T </v>
   <v type="logical" >  T  T  T </v>
   <v type="logical" >  T  T  T </v>
   <v type="logical" >  T  T  T </v>
   <v type="logical" >  T  T  T </v>
   <v type="logical" >  T  T  T </v>
   <v type="logical" >  T  T  T </v>
   <v type="logical" >  T  T  T </v>
   <v type="logical" >  T  T  T </v>
   <v type="logical" >  T  T  T </v>
   <v type="logical" >  T  T  T </v>
   <v type="logical" >  T  T  T </v>
   <v type="logical" >  T  T  T </v>
   <v type="logical" >  T  T  T </v>
   <v type="logical" >  T  T  T </v>
   <v type="logical" >  T  T  T </v>
   <v type="logical" >  T  T  T </v>
   <v type="logical" >  T  T  T </v>
   <v type="logical" >  T  T  T </v>
   <v type="logical" >  T  T  T </v>
   <v type="logical" >  T  T  T </v>
   <v type="logical" >  T  T  T </v>
   <v type="logical" >  T  T  T </v>
   <v type="logical" >  T  T  T </v>
   <v type="logical" >  T  T  T </v>
   <v type="logical" >  T  T  T </v>
   <v type="logical" >  T  T  T </v>
   <v type="logical" >  T  T  T </v>
   <v type="logical" >  T  T  T </v>
   <v type="logical" >  T  T  T </v>
   <v type="logical" >  T  T  T </v>
   <v type="logical" >  T  T  T </v>
   <v type="logical" >  T  T  T </v>
   <v type="logical" >  T  T  T </v>
   <v type="logical" >  T  T  T </v>
   <v type="logical" >  T  T  T </v>
   <v type="logical" >  T  T  T </v>
   <v type="logical" >  T  T  T </v>
   <v type="logical" >  T  T  T </v>
   <v type="logical" >  T  T  T </v>
   <v type="logical" >  T  T  T </v>
   <v type="logical" >  T  T  T </v>
   <v type="logical" >  T  T  T </v>
   <v type="logical" >  T  T  T </v>
   <v type="logical" >  T  T  T </v>
   <v type="logical" >  T  T  T </v>
   <v type="logical" >  T  T  T </v>
   <v type="logical" >  T  T  T </v>
   <v type="logical" >  T  T  T </v>
   <v type="logical" >  T  T  T </v>
   <v type="logical" >  T  T  T </v>
   <v type="logical" >  T  T  T </v>
   <v type="logical" >  T  T  T </v>
   <v type="logical" >  T  T  T </v>
   <v type="logical" >  T  T  T </v>
   <v type="logical" >  T  T  T </v>
   <v type="logical" >  T  T  T </v>
   <v type="logical" >  T  T  T </v>
   <v type="logical" >  T  T  T </v>
   <v type="logical" >  T  T  T </v>
   <v type="logical" >  T  T  T </v>
   <v type="logical" >  T  T  T </v>
   <v type="logical" >  T  T  T </v>
   <v type="logical" >  T  T  T </v>
   <v type="logical" >  T  T  T </v>
   <v type="logical" >  T  T  T </v>
   <v type="logical" >  T  T  T </v>
   <v type="logical" >  T  T  T </v>
   <v type="logical" >  T  T  T </v>
   <v type="logical" >  T  T  T </v>
   <v type="logical" >  T  T  T </v>
   <v type="logical" >  T  T  T </v>
   <v type="logical" >  T  T  T </v>
   <v type="logical" >  T  T  T </v>
   <v type="logical" >  T  T  T </v>
   <v type="logical" >  T  T  T </v>
   <v type="logical" >  T  T  T </v>
   <v type="logical" >  T  T  T </v>
   <v type="logical" >  T  T  T </v>
   <v type="logical" >  T  T  T </v>
   <v type="logical" >  T  T  T </v>
   <v type="logical" >  T  T  T </v>
   <v type="logical" >  T  T  T </v>
   <v type="logical" >  T  T  T </v>
   <v type="logical" >  T  T  T </v>
   <v type="logical" >  T  T  T </v>
   <v type="logical" >  T  T  T </v>
   <v type="logical" >  T  T  T </v>
   <v type="logical" >  T  T  T </v>
   <v type="logical" >  T  T  T </v>
   <v type="logical" >  T  T  T </v>
   <v type="logical" >  T  T  T </v>
   <v type="logical" >  T  T  T </v>
   <v type="logical" >  T  T  T </v>
   <v type="logical" >  T  T  T </v>
   <v type="logical" >  T  T  T </v>
   <v type="logical" >  T  T  T </v>
   <v type="logical" >  T  T  T </v>
   <v type="logical" >  T  T  T </v>
   <v type="logical" >  T  T  T </v>
   <v type="logical" >  T  T  T </v>
   <v type="logical" >  T  T  T </v>
   <v type="logical" >  T  T  T </v>
   <v type="logical" >  T  T  T </v>
   <v type="logical" >  T  T  T </v>
   <v type="logical" >  T  T  T </v>
   <v type="logical" >  T  T  T </v>
   <v type="logical" >  T  T  T </v>
   <v type="logical" >  T  T  T </v>
   <v type="logical" >  T  T  T </v>
   <v type="logical" >  T  T  T </v>
   <v type="logical" >  T  T  T </v>
   <v type="logical" >  T  T  T </v>
   <v type="logical" >  T  T  T </v>
   <v type="logical" >  T  T  T </v>
   <v type="logical" >  T  T  T </v>
   <v type="logical" >  F  F  F </v>
   <v type="logical" >  F  F  F </v>
   <v type="logical" >  F  F  F </v>
   <v type="logical" >  F  F  F </v>
   <v type="logical" >  F  F  F </v>
   <v type="logical" >  F  F  F </v>
   <v type="logical" >  F  F  F </v>
   <v type="logical" >  F  F  F </v>
   <v type="logical" >  F  F  F </v>
   <v type="logical" >  F  F  F </v>
   <v type="logical" >  F  F  F </v>
   <v type="logical" >  F  F  F </v>
   <v type="logical" >  F  F  F </v>
   <v type="logical" >  F  F  F </v>
   <v type="logical" >  F  F  F </v>
   <v type="logical" >  F  F  F </v>
   <v type="logical" >  F  F  F </v>
   <v type="logical" >  F  F  F </v>
   <v type="logical" >  F  F  F </v>
   <v type="logical" >  F  F  F </v>
   <v type="logical" >  F  F  F </v>
   <v type="logical" >  F  F  F </v>
   <v type="logical" >  F  F  F </v>
   <v type="logical" >  F  F  F </v>
   <v type="logical" >  F  F  F </v>
   <v type="logical" >  F  F  F </v>
   <v type="logical" >  F  F  F </v>
   <v type="logical" >  F  F  F </v>
   <v type="logical" >  F  F  F </v>
   <v type="logical" >  F  F  F </v>
   <v type="logical" >  F  F  F </v>
   <v type="logical" >  F  F  F </v>
   <v type="logical" >  F  F  F </v>
   <v type="logical" >  F  F  F </v>
   <v type="logical" >  F  F  F </v>
   <v type="logical" >  F  F  F </v>
   <v type="logical" >  F  F  F </v>
   <v type="logical" >  F  F  F </v>
   <v type="logical" >  F  F  F </v>
   <v type="logical" >  F  F  F </v>
   <v type="logical" >  F  F  F </v>
   <v type="logical" >  F  F  F </v>
   <v type="logical" >  F  F  F </v>
   <v type="logical" >  F  F  F </v>
   <v type="logical" >  F  F  F </v>
   <v type="logical" >  F  F  F </v>
   <v type="logical" >  F  F  F </v>
   <v type="logical" >  F  F  F </v>
   <v type="logical" >  F  F  F </v>
   <v type="logical" >  F  F  F </v>
   <v type="logical" >  F  F  F </v>
   <v type="logical" >  F  F  F </v>
   <v type="logical" >  F  F  F </v>
   <v type="logical" >  F  F  F </v>
   <v type="logical" >  F  F  F </v>
   <v type="logical" >  F  F  F </v>
   <v type="logical" >  F  F  F </v>
   <v type="logical" >  F  F  F </v>
   <v type="logical" >  F  F  F </v>
   <v type="logical" >  F  F  F </v>
   <v type="logical" >  F  F  F </v>
   <v type="logical" >  F  F  F </v>
   <v type="logical" >  F  F  F </v>
   <v type="logical" >  F  F  F </v>
   <v type="logical" >  T  T  T </v>
   <v type="logical" >  T  T  T </v>
   <v type="logical" >  T  T  T </v>
   <v type="logical" >  T  T  T </v>
   <v type="logical" >  T  T  T </v>
   <v type="logical" >  T  T  T </v>
   <v type="logical" >  T  T  T </v>
   <v type="logical" >  T  T  T </v>
   <v type="logical" >  T  T  T </v>
   <v type="logical" >  T  T  T </v>
   <v type="logical" >  T  T  T </v>
   <v type="logical" >  T  T  T </v>
   <v type="logical" >  T  T  T </v>
   <v type="logical" >  T  T  T </v>
   <v type="logical" >  T  T  T </v>
   <v type="logical" >  T  T  T </v>
   <v type="logical" >  T  T  T </v>
   <v type="logical" >  T  T  T </v>
   <v type="logical" >  T  T  T </v>
   <v type="logical" >  T  T  T </v>
   <v type="logical" >  T  T  T </v>
   <v type="logical" >  T  T  T </v>
   <v type="logical" >  T  T  T </v>
   <v type="logical" >  T  T  T </v>
   <v type="logical" >  T  T  T </v>
   <v type="logical" >  T  T  T </v>
   <v type="logical" >  T  T  T </v>
   <v type="logical" >  T  T  T </v>
   <v type="logical" >  T  T  T </v>
   <v type="logical" >  T  T  T </v>
   <v type="logical" >  T  T  T </v>
   <v type="logical" >  T  T  T </v>
   <v type="logical" >  T  T  T </v>
   <v type="logical" >  T  T  T </v>
   <v type="logical" >  T  T  T </v>
   <v type="logical" >  T  T  T </v>
   <v type="logical" >  T  T  T </v>
   <v type="logical" >  T  T  T </v>
   <v type="logical" >  T  T  T </v>
   <v type="logical" >  T  T  T </v>
   <v type="logical" >  T  T  T </v>
   <v type="logical" >  T  T  T </v>
   <v type="logical" >  T  T  T </v>
   <v type="logical" >  T  T  T </v>
   <v type="logical" >  T  T  T </v>
   <v type="logical" >  T  T  T </v>
   <v type="logical" >  T  T  T </v>
   <v type="logical" >  T  T  T </v>
   <v type="logical" >  T  T  T </v>
   <v type="logical" >  T  T  T </v>
   <v type="logical" >  T  T  T </v>
   <v type="logical" >  T  T  T </v>
   <v type="logical" >  T  T  T </v>
   <v type="logical" >  T  T  T </v>
   <v type="logical" >  T  T  T </v>
   <v type="logical" >  T  T  T </v>
   <v type="logical" >  T  T  T </v>
   <v type="logical" >  T  T  T </v>
   <v type="logical" >  T  T  T </v>
   <v type="logical" >  T  T  T </v>
   <v type="logical" >  T  T  T </v>
   <v type="logical" >  T  T  T </v>
   <v type="logical" >  T  T  T </v>
   <v type="logical" >  T  T  T </v>
  </varray>
  <varray name="velocities" >
   <v>       0.00041034       0.00025652       0.00015868 </v>
   <v>       0.00018463       0.00012457       0.00020807 </v>
   <v>       0.00013686      -0.00048694      -0.00001186 </v>
   <v>       0.00023900      -0.00028819      -0.00000706 </v>
   <v>      -0.00030048       0.00012504      -0.00005424 </v>
   <v>       0.00022307      -0.00007049      -0.00003666 </v>
   <v>       0.00095843      -0.00073777      -0.00007048 </v>
   <v>       0.00029595      -0.00034746       0.00003999 </v>
   <v>       0.00009248      -0.00010378      -0.00025009 </v>
   <v>      -0.00031100       0.00023792      -0.00003156 </v>
   <v>       0.00022356      -0.00018495       0.00004902 </v>
   <v>       0.00008175       0.00041257      -0.00014599 </v>
   <v>      -0.00003946      -0.00008060      -0.00016847 </v>
   <v>       0.00004367      -0.00044314      -0.00007648 </v>
   <v>       0.00126514      -0.00092221      -0.00025946 </v>
[...]
   <v type="logical" >  F  F  F </v>
   <v type="logical" >  F  F  F </v>
   <v type="logical" >  F  F  F </v>
   <v type="logical" >  F  F  F </v>
   <v type="logical" >  F  F  F </v>
   <v type="logical" >  F  F  F </v>
   <v type="logical" >  F  F  F </v>
   <v type="logical" >  F  F  F </v>
   <v type="logical" >  F  F  F </v>
   <v type="logical" >  F  F  F </v>
   <v type="logical" >  F  F  F </v>
   <v type="logical" >  F  F  F </v>
   <v type="logical" >  F  F  F </v>
   <v type="logical" >  F  F  F </v>
   <v type="logical" >  F  F  F </v>
   <v type="logical" >  F  F  F </v>
   <v type="logical" >  F  F  F </v>
   <v type="logical" >  F  F  F </v>
   <v type="logical" >  F  F  F </v>
   <v type="logical" >  F  F  F </v>
   <v type="logical" >  F  F  F </v>
   <v type="logical" >  F  F  F </v>
   <v type="logical" >  F  F  F </v>
   <v type="logical" >  F  F  F </v>
   <v type="logical" >  F  F  F </v>
   <v type="logical" >  F  F  F </v>
   <v type="logical" >  F  F  F </v>
   <v type="logical" >  F  F  F </v>
   <v type="logical" >  F  F  F </v>
   <v type="logical" >  F  F  F </v>
   <v type="logical" >  F  F  F </v>
   <v type="logical" >  F  F  F </v>
   <v type="logical" >  F  F  F </v>
   <v type="logical" >  F  F  F </v>
   <v type="logical" >  F  F  F </v>
   <v type="logical" >  F  F  F </v>
   <v type="logical" >  F  F  F </v>
   <v type="logical" >  F  F  F </v>
   <v type="logical" >  F  F  F </v>
   <v type="logical" >  F  F  F </v>
   <v type="logical" >  F  F  F </v>
   <v type="logical" >  F  F  F </v>
   <v type="logical" >  F  F  F </v>
   <v type="logical" >  F  F  F </v>
   <v type="logical" >  F  F  F </v>
   <v type="logical" >  F  F  F </v>
   <v type="logical" >  F  F  F </v>
   <v type="logical" >  F  F  F </v>
   <v type="logical" >  F  F  F </v>
   <v type="logical" >  F  F  F </v>
   <v type="logical" >  F  F  F </v>
   <v type="logical" >  F  F  F </v>
   <v type="logical" >  T  T  T </v>
   <v type="logical" >  T  T  T </v>
   <v type="logical" >  T  T  T </v>
   <v type="logical" >  T  T  T </v>
   <v type="logical" >  T  T  T </v>
   <v type="logical" >  T  T  T </v>
   <v type="logical" >  T  T  T </v>
   <v type="logical" >  T  T  T </v>
   <v type="logical" >  T  T  T </v>
   <v type="logical" >  T  T  T </v>
   <v type="logical" >  T  T  T </v>
   <v type="logical" >  T  T  T </v>
   <v type="logical" >  T  T  T </v>
   <v type="logical" >  T  T  T </v>
   <v type="logical" >  T  T  T </v>
   <v type="logical" >  T  T  T </v>
   <v type="logical" >  T  T  T </v>
   <v type="logical" >  T  T  T </v>
   <v type="logical" >  T  T  T </v>
   <v type="logical" >  T  T  T </v>
   <v type="logical" >  T  T  T </v>
   <v type="logical" >  T  T  T </v>
   <v type="logical" >  T  T  T </v>
   <v type="logical" >  T  T  T </v>
   <v type="logical" >  T  T  T </v>
   <v type="logical" >  T  T  T </v>
   <v type="logical" >  T  T  T </v>
   <v type="logical" >  T  T  T </v>
   <v type="logical" >  T  T  T </v>
   <v type="logical" >  T  T  T </v>
   <v type="logical" >  T  T  T </v>
   <v type="logical" >  T  T  T </v>
   <v type="logical" >  T  T  T </v>
   <v type="logical" >  T  T  T </v>
   <v type="logical" >  T  T  T </v>
   <v type="logical" >  T  T  T </v>
   <v type="logical" >  T  T  T </v>
   <v type="logical" >  T  T  T </v>
   <v type="logical" >  T  T  T </v>
   <v type="logical" >  T  T  T </v>
   <v type="logical" >  T  T  T </v>
   <v type="logical" >  T  T  T </v>
   <v type="logical" >  T  T  T </v>
   <v type="logical" >  T  T  T </v>
   <v type="logical" >  T  T  T </v>
   <v type="logical" >  T  T  T </v>
   <v type="logical" >  T  T  T </v>
   <v type="logical" >  T  T  T </v>
   <v type="logical" >  T  T  T </v>
   <v type="logical" >  T  T  T </v>
   <v type="logical" >  T  T  T </v>
   <v type="logical" >  T  T  T </v>
   <v type="logical" >  T  T  T </v>
   <v type="logical" >  T  T  T </v>
   <v type="logical" >  T  T  T </v>
   <v type="logical" >  T  T  T </v>
   <v type="logical" >  T  T  T </v>
   <v type="logical" >  T  T  T </v>
   <v type="logical" >  T  T  T </v>
   <v type="logical" >  T  T  T </v>
   <v type="logical" >  T  T  T </v>
   <v type="logical" >  T  T  T </v>
   <v type="logical" >  T  T  T </v>
   <v type="logical" >  T  T  T </v>
  </varray>
  <varray name="velocities" >
   <v>       0.00076292      -0.00045226      -0.00011673 </v>
   <v>       0.00044196      -0.00075251      -0.00003936 </v>
   <v>       0.00014118       0.00016871      -0.00016479 </v>
   <v>       0.00022668       0.00024632       0.00021963 </v>
   <v>       0.00019422       0.00001219       0.00000721 </v>
   <v>      -0.00001743       0.00018389       0.00005468 </v>
   <v>      -0.00036670       0.00080160       0.00002980 </v>
   <v>      -0.00078172       0.00148853       0.00020697 </v>
   <v>       0.00013372       0.00011097       0.00012629 </v>
   <v>       0.00021035      -0.00013287       0.00018147 </v>
   <v>       0.00035584      -0.00015140       0.00020024 </v>
   <v>       0.00006518      -0.00034042       0.00050995 </v>
   <v>       0.00002706       0.00020059       0.00042571 </v>
   <v>       0.00071791      -0.00024487       0.00021249 </v>
   <v>       0.00341722      -0.00141950       0.00010002 </v>
   <v>      -0.00008657      -0.00066326       0.00015704 </v>
   <v>      -0.00030382       0.00119029       0.00003246 </v>
   <v>      -0.00199600       0.00060533       0.00077657 </v>
   <v>       0.00009092      -0.00106911       0.00003099 </v>
   <v>       0.00013694       0.00080447       0.00007468 </v>
   <v>      -0.00131740       0.00264856       0.00003254 </v>
   <v>      -0.00013678       0.00012487       0.00038347 </v>
   <v>      -0.00125334       0.00159563       0.00062590 </v>
   <v>      -0.00073443       0.00124883      -0.00018314 </v>
   <v>       0.00004908       0.00026376      -0.00010018 </v>
   <v>       0.00074894      -0.00155848      -0.00011658 </v>
   <v>       0.00209186       0.00002777      -0.00016501 </v>
   <v>       0.00055278      -0.00071472       0.00007123 </v>
   <v>      -0.00070671       0.00056591      -0.00010017 </v>
   <v>       0.00050029       0.00071434      -0.00014419 </v>
   <v>      -0.00110846       0.00002749      -0.00023475 </v>
   <v>      -0.00030960       0.00049508       0.00002981 </v>
   <v>       0.00063521      -0.00142002      -0.00032170 </v>
   <v>      -0.00103320       0.00060147      -0.00018185 </v>
   <v>       0.00200861      -0.00154150      -0.00037157 </v>
   <v>       0.00015412      -0.00062065      -0.00003422 </v>
   <v>       0.00045566      -0.00021583      -0.00001980 </v>
   <v>       0.00082268      -0.00063876      -0.00016965 </v>
   <v>       0.00027807      -0.00018918      -0.00005335 </v>
   <v>      -0.00042116       0.00030626       0.00008816 </v>
   <v>      -0.00029743       0.00019213       0.00007493 </v>
   <v>      -0.00044380      -0.00010027      -0.00007368 </v>
   <v>      -0.00073412       0.00050186       0.00009873 </v>
   <v>       0.00026118       0.00042591       0.00003506 </v>
   <v>      -0.00450476       0.00254437      -0.00066915 </v>
   <v>       0.00155143      -0.00152926      -0.00019839 </v>
   <v>      -0.00039853       0.00070561      -0.00006294 </v>
   <v>       0.00028576       0.00089914       0.00030623 </v>
   <v>       0.00012678       0.00034317      -0.00003126 </v>
   <v>       0.00069468      -0.00083172       0.00018789 </v>
   <v>       0.00050022      -0.00037818      -0.00008517 </v>
   <v>       0.00038982      -0.00129871       0.00015763 </v>
   <v>      -0.00009691      -0.00027493       0.00002209 </v>
   <v>       0.00063105       0.00022637       0.00000122 </v>
   <v>       0.00011655       0.00001506      -0.00008717 </v>
   <v>      -0.00033953       0.00011126       0.00009399 </v>
   <v>       0.00003258       0.00003217       0.00004586 </v>
   <v>       0.00026938      -0.00017103       0.00001760 </v>
   <v>       0.00004862      -0.00020532       0.00002782 </v>
   <v>      -0.00004469      -0.00000535       0.00006649 </v>
   <v>      -0.00003657       0.00031522      -0.00000554 </v>
   <v>       0.00003078      -0.00009408      -0.00003191 </v>
   <v>       0.00006511      -0.00016906       0.00008538 </v>
   <v>      -0.00038697       0.00015738      -0.00013323 </v>
   <v>       0.00018083       0.00000404      -0.00008143 </v>
   <v>      -0.00011313      -0.00001000      -0.00014775 </v>
   <v>       0.00020211       0.00006242       0.00000503 </v>
   <v>      -0.00001855      -0.00026134       0.00001494 </v>
   <v>       0.00008312      -0.00000168       0.00010896 </v>
   <v>       0.00004206      -0.00011658      -0.00001470 </v>
   <v>       0.00008899      -0.00013316       0.00005176 </v>
   <v>      -0.00016226       0.00030645       0.00002560 </v>
   <v>      -0.00000613       0.00017679       0.00004286 </v>
   <v>       0.00014428      -0.00002544       0.00002081 </v>
   <v>      -0.00021854       0.00023437      -0.00006908 </v>
   <v>      -0.00018896      -0.00007540      -0.00008343 </v>
   <v>      -0.00022785       0.00015844      -0.00004456 </v>
   <v>       0.00007248      -0.00017520       0.00002653 </v>
   <v>       0.00011547       0.00012582       0.00001096 </v>
   <v>      -0.00027351       0.00019441      -0.00002330 </v>
   <v>      -0.00001754      -0.00002683      -0.00001121 </v>
   <v>      -0.00020003       0.00001982       0.00001890 </v>
   <v>      -0.00022210       0.00008584      -0.00001649 </v>
   <v>       0.00008895       0.00006269      -0.00005622 </v>
   <v>      -0.00010140       0.00007566      -0.00002687 </v>
   <v>      -0.00000951      -0.00003549       0.00001186 </v>
   <v>       0.00012389       0.00019101       0.00000891 </v>
   <v>      -0.00010461       0.00009654       0.00000252 </v>
   <v>       0.00006969      -0.00015995      -0.00003483 </v>
   <v>       0.00000588      -0.00021820       0.00006376 </v>
   <v>       0.00007920      -0.00004361      -0.00000047 </v>
   <v>       0.00008205      -0.00018800      -0.00000539 </v>
   <v>       0.00002009       0.00004655       0.00001042 </v>
   <v>      -0.00000384       0.00015319       0.00005578 </v>
   <v>      -0.00000575      -0.00004203       0.00006295 </v>
   <v>       0.00014928      -0.00006819      -0.00002418 </v>
   <v>       0.00014586      -0.00004953       0.00007397 </v>
   <v>      -0.00005554      -0.00030213      -0.00000709 </v>
   <v>       0.00017645      -0.00011126       0.00002117 </v>
   <v>       0.00025027      -0.00010947      -0.00003893 </v>
   <v>      -0.00027356       0.00035221      -0.00003380 </v>
   <v>      -0.00033812       0.00025964       0.00004439 </v>
   <v>       0.00008893      -0.00009824      -0.00000508 </v>
   <v>      -0.00023422       0.00010318      -0.00008568 </v>
   <v>       0.00001803       0.00015713      -0.00002811 </v>
   <v>      -0.00004308       0.00022998       0.00001810 </v>
   <v>       0.00042527      -0.00025903       0.00002636 </v>
   <v>      -0.00014712      -0.00021297       0.00000934 </v>
   <v>      -0.00026566       0.00012531       0.00006667 </v>
   <v>       0.00002793      -0.00001753      -0.00001085 </v>
   <v>      -0.00014275       0.00010459      -0.00001545 </v>
   <v>       0.00013556       0.00012841       0.00008661 </v>
   <v>      -0.00011066       0.00028491       0.00002028 </v>
   <v>       0.00028745      -0.00043529      -0.00004089 </v>
   <v>       0.00007286      -0.00004094       0.00005066 </v>
   <v>      -0.00024180       0.00019972      -0.00001955 </v>
   <v>      -0.00011273      -0.00001684       0.00007479 </v>
   <v>      -0.00023602       0.00006146       0.00002872 </v>
   <v>       0.00000000       0.00000000       0.00000000 </v>
   <v>       0.00000000       0.00000000       0.00000000 </v>
   <v>       0.00000000       0.00000000       0.00000000 </v>
   <v>       0.00000000       0.00000000       0.00000000 </v>
   <v>       0.00000000       0.00000000       0.00000000 </v>
   <v>       0.00000000       0.00000000       0.00000000 </v>
   <v>       0.00000000       0.00000000       0.00000000 </v>
   <v>       0.00000000       0.00000000       0.00000000 </v>
   <v>       0.00000000       0.00000000       0.00000000 </v>
   <v>       0.00000000       0.00000000       0.00000000 </v>
   <v>       0.00000000       0.00000000       0.00000000 </v>
   <v>       0.00000000       0.00000000       0.00000000 </v>
   <v>       0.00000000       0.00000000       0.00000000 </v>
   <v>       0.00000000       0.00000000       0.00000000 </v>
   <v>       0.00000000       0.00000000       0.00000000 </v>
   <v>       0.00000000       0.00000000       0.00000000 </v>
   <v>       0.00000000       0.00000000       0.00000000 </v>
   <v>       0.00000000       0.00000000       0.00000000 </v>
   <v>       0.00000000       0.00000000       0.00000000 </v>
   <v>       0.00000000       0.00000000       0.00000000 </v>
   <v>       0.00000000       0.00000000       0.00000000 </v>
   <v>       0.00000000       0.00000000       0.00000000 </v>
   <v>       0.00000000       0.00000000       0.00000000 </v>
   <v>       0.00000000       0.00000000       0.00000000 </v>
   <v>       0.00000000       0.00000000       0.00000000 </v>
   <v>       0.00000000       0.00000000       0.00000000 </v>
   <v>       0.00000000       0.00000000       0.00000000 </v>
   <v>       0.00000000       0.00000000       0.00000000 </v>
   <v>       0.00000000       0.00000000       0.00000000 </v>
   <v>       0.00000000       0.00000000       0.00000000 </v>
   <v>       0.00000000       0.00000000       0.00000000 </v>
   <v>       0.00000000       0.00000000       0.00000000 </v>
   <v>       0.00000000       0.00000000       0.00000000 </v>
   <v>       0.00000000       0.00000000       0.00000000 </v>
   <v>       0.00000000       0.00000000       0.00000000 </v>
   <v>       0.00000000       0.00000000       0.00000000 </v>
   <v>       0.00000000       0.00000000       0.00000000 </v>
   <v>       0.00000000       0.00000000       0.00000000 </v>
   <v>       0.00000000       0.00000000       0.00000000 </v>
   <v>       0.00000000       0.00000000       0.00000000 </v>
   <v>       0.00000000       0.00000000       0.00000000 </v>
   <v>       0.00000000       0.00000000       0.00000000 </v>
   <v>       0.00000000       0.00000000       0.00000000 </v>
   <v>       0.00000000       0.00000000       0.00000000 </v>
   <v>       0.00000000       0.00000000       0.00000000 </v>
   <v>       0.00000000       0.00000000       0.00000000 </v>
   <v>       0.00000000       0.00000000       0.00000000 </v>
   <v>       0.00000000       0.00000000       0.00000000 </v>
   <v>       0.00000000       0.00000000       0.00000000 </v>
   <v>       0.00000000       0.00000000       0.00000000 </v>
   <v>       0.00000000       0.00000000       0.00000000 </v>
   <v>       0.00000000       0.00000000       0.00000000 </v>
   <v>       0.00000000       0.00000000       0.00000000 </v>
   <v>       0.00000000       0.00000000       0.00000000 </v>
   <v>       0.00000000       0.00000000       0.00000000 </v>
   <v>       0.00000000       0.00000000       0.00000000 </v>
   <v>       0.00000000       0.00000000       0.00000000 </v>
   <v>       0.00000000       0.00000000       0.00000000 </v>
   <v>       0.00000000       0.00000000       0.00000000 </v>
   <v>       0.00000000       0.00000000       0.00000000 </v>
   <v>       0.00000000       0.00000000       0.00000000 </v>
   <v>       0.00000000       0.00000000       0.00000000 </v>
   <v>       0.00000000       0.00000000       0.00000000 </v>
   <v>       0.00000000       0.00000000       0.00000000 </v>
   <v>       0.00001236       0.00004499       0.00001891 </v>
   <v>      -0.00002698       0.00005118       0.00000060 </v>
   <v>       0.00030085      -0.00011140      -0.00002291 </v>
   <v>      -0.00015920      -0.00019829      -0.00000551 </v>
   <v>      -0.00024254       0.00005565       0.00012893 </v>
   <v>      -0.00010440      -0.00027754      -0.00000533 </v>
   <v>      -0.00000163      -0.00015343       0.00005486 </v>
   <v>      -0.00011556       0.00034559       0.00004274 </v>
   <v>       0.00008262      -0.00009741       0.00009928 </v>
   <v>       0.00007158      -0.00003716       0.00009701 </v>
   <v>      -0.00051186       0.00027354       0.00004111 </v>
   <v>       0.00009506       0.00001500      -0.00001680 </v>
   <v>      -0.00038965       0.00028509      -0.00002006 </v>
   <v>      -0.00006223       0.00040772      -0.00008622 </v>
   <v>       0.00007428       0.00012767       0.00002476 </v>
   <v>       0.00022363      -0.00023906       0.00010167 </v>
   <v>       0.00012542       0.00000009      -0.00002610 </v>
   <v>       0.00011494      -0.00006082       0.00006703 </v>
   <v>       0.00008372      -0.00009942      -0.00002891 </v>
   <v>       0.00004505      -0.00009916      -0.00004278 </v>
   <v>       0.00036314      -0.00006717       0.00002071 </v>
   <v>      -0.00017905       0.00000997       0.00011034 </v>
   <v>       0.00016405       0.00000269       0.00012498 </v>
   <v>       0.00006511       0.00017914      -0.00000141 </v>
   <v>       0.00012963       0.00003825      -0.00003173 </v>
   <v>      -0.00025930       0.00041350       0.00005457 </v>
   <v>      -0.00003929      -0.00007963      -0.00001470 </v>
   <v>       0.00002606      -0.00010161      -0.00009500 </v>
   <v>       0.00013187      -0.00005397       0.00007585 </v>
   <v>      -0.00012829       0.00009081      -0.00005008 </v>
   <v>      -0.00003372      -0.00020729       0.00004245 </v>
   <v>      -0.00018336       0.00009838      -0.00007910 </v>
   <v>      -0.00013135      -0.00008979       0.00006973 </v>
   <v>       0.00012518       0.00013432      -0.00000603 </v>
   <v>       0.00001141       0.00008859       0.00005599 </v>
   <v>      -0.00001266      -0.00012833       0.00004173 </v>
   <v>      -0.00002054      -0.00017840      -0.00001002 </v>
   <v>      -0.00023946      -0.00012597      -0.00003369 </v>
   <v>       0.00000277       0.00016599       0.00006569 </v>
   <v>      -0.00017212       0.00019736      -0.00002691 </v>
   <v>      -0.00007449       0.00040174       0.00003738 </v>
   <v>      -0.00006310       0.00028485       0.00003010 </v>
   <v>      -0.00003441       0.00014254      -0.00005395 </v>
   <v>       0.00021847      -0.00021749       0.00005550 </v>
   <v>       0.00021690      -0.00008020      -0.00005504 </v>
   <v>      -0.00037983      -0.00003174       0.00005362 </v>
   <v>      -0.00002987      -0.00005673       0.00004243 </v>
   <v>       0.00003850       0.00005383       0.00001180 </v>
   <v>       0.00019998       0.00007242       0.00007454 </v>
   <v>       0.00001117       0.00006294      -0.00002741 </v>
   <v>      -0.00040360       0.00030661      -0.00009218 </v>
   <v>      -0.00002695      -0.00012318       0.00002316 </v>
   <v>      -0.00008103      -0.00001687       0.00003885 </v>
   <v>      -0.00001761       0.00006798      -0.00000919 </v>
   <v>       0.00018547       0.00001039      -0.00000079 </v>
   <v>      -0.00043699       0.00012563       0.00017239 </v>
   <v>       0.00028496      -0.00007288      -0.00003689 </v>
   <v>      -0.00000027       0.00016264      -0.00003340 </v>
   <v>       0.00010132       0.00010203      -0.00004398 </v>
   <v>       0.00010446      -0.00012977       0.00000298 </v>
   <v>       0.00025173      -0.00035592      -0.00009933 </v>
   <v>      -0.00033301       0.00016822       0.00008067 </v>
   <v>       0.00017681      -0.00016468       0.00003677 </v>
   <v>      -0.00011805       0.00006298      -0.00001365 </v>
  </varray>
  <nose>
   <v>      -1.00000000       0.00000000     300.00000000     300.00000000 </v>
  </nose>
 </structure>
</modeling>
