<?xml version="1.0" encoding="ISO-8859-1"?>
<modeling>
 <generator>
  <i name="program" type="string">vasp </i>
  <i name="version" type="string">6.3.2  </i>
  <i name="subversion" type="string">27Jun22 (build Oct 28 2022 14:47:18) complex                          parallel </i>
  <i name="platform" type="string">LinuxIFC </i>
  <i name="date" type="string">2023 04 12 </i>
  <i name="time" type="string">14:48:22 </i>
 </generator>
 <incar>
  <i type="string" name="SYSTEM">Si_surface_6layer</i>
  <i type="string" name="PREC">Accurate</i>
  <i type="int" name="NELMIN">     5</i>
  <i type="int" name="IBRION">     0</i>
  <i name="EDIFF">      0.00010000</i>
  <i name="EDIFFG">     -0.00950000</i>
  <i type="int" name="NSW">   100</i>
  <i type="int" name="ISIF">     2</i>
  <i type="int" name="ISYM">     0</i>
  <i name="ENCUT">    540.00000000</i>
  <i type="int" name="NBANDS">   640</i>
  <i name="POTIM">      1.00000000</i>
  <i name="TEBEG">    300.00000000</i>
  <i name="SMASS">     -1.00000000</i>
  <i type="int" name="ISMEAR">     0</i>
  <i name="SIGMA">      0.01000000</i>
  <i type="int" name="NWRITE">     1</i>
  <i type="int" name="IDIPOL">     3</i>
  <i type="int" name="IVDW">    12</i>
  <i type="int" name="MDALGO">     2</i>
 </incar>
 <primitive_cell>
  <structure name="primitive_cell" >
   <crystal>
    <varray name="basis" >
     <v>      15.33298779       0.00000000       0.00000000 </v>
     <v>       7.66649389      13.27875694       0.00000000 </v>
     <v>       0.00000000       0.00000000      41.55799484 </v>
    </varray>
    <i name="volume">   8461.33316923 </i>
    <varray name="rec_basis" >
     <v>       0.06521886      -0.03765413       0.00000000 </v>
     <v>       0.00000000       0.07530825       0.00000000 </v>
     <v>       0.00000000       0.00000000       0.02406276 </v>
    </varray>
   </crystal>
   <varray name="positions" >
    <v>       0.58505500       0.42262734       0.57212467 </v>
    <v>       0.50956492       0.41010642       0.56026557 </v>
    <v>       0.61979319       0.47825526       0.55834719 </v>
    <v>       0.47247470       0.45000039       0.52927241 </v>
    <v>       0.51480804       0.49721717       0.50948590 </v>
    <v>       0.57662403       0.52928696       0.52765605 </v>
    <v>       0.69295098       0.49629566       0.57457785 </v>
    <v>       0.71291014       0.56796893       0.56338751 </v>
    <v>       0.66213819       0.62733456       0.53666796 </v>
    <v>       0.59915187       0.60585305       0.51859851 </v>
    <v>       0.46632891       0.36310743       0.57858201 </v>
    <v>       0.38785626       0.35693699       0.56768580 </v>
    <v>       0.35339167       0.38972617       0.53646560 </v>
    <v>       0.39666039       0.42924096       0.51802910 </v>
    <v>       0.48710967       0.35126365       0.60414084 </v>
    <v>       0.35114014       0.32146657       0.58064381 </v>
    <v>       0.30368649       0.36551058       0.52460124 </v>
    <v>       0.37056625       0.45153033       0.49393941 </v>
    <v>       0.61110407       0.38692209       0.59546669 </v>
    <v>       0.55334102       0.65597891       0.49837283 </v>
    <v>       0.67741770       0.68892103       0.52931811 </v>
    <v>       0.73050252       0.45575747       0.59650850 </v>
    <v>       0.76718165       0.58429207       0.57573822 </v>
    <v>       0.00408666       0.98225566       0.01847871 </v>
    <v>       0.50253423       0.00148690       0.02316266 </v>
    <v>       0.99719150       0.51510346       0.02163018 </v>
    <v>       0.48165371       0.50900684       0.02035922 </v>
    <v>       0.24199688       0.01106692       0.02176318 </v>
    <v>       0.75084384       0.98917817       0.01961176 </v>
    <v>       0.23114260       0.49812118       0.02294263 </v>
    <v>       0.76145663       0.49387818       0.01605173 </v>
    <v>       0.01214208       0.23395662       0.01929278 </v>
    <v>       0.48344055       0.26714332       0.01975490 </v>
    <v>       0.01133985       0.74745323       0.02136314 </v>
    <v>       0.48638181       0.76527700       0.02158989 </v>
    <v>       0.25120895       0.25623824       0.01951097 </v>
    <v>       0.73777481       0.25028803       0.02026005 </v>
    <v>       0.23548741       0.75452199       0.02298976 </v>
    <v>       0.74095836       0.75814708       0.02147390 </v>
    <v>       0.00101943       0.00258776       0.48726265 </v>
    <v>       0.50250478       0.99018170       0.48450004 </v>
    <v>       0.99713994       0.50180740       0.48752073 </v>
    <v>       0.26650408       0.98267690       0.48566325 </v>
    <v>       0.73531003       0.00810576       0.48784341 </v>
    <v>       0.23694842       0.51661731       0.47773098 </v>
    <v>       0.73762228       0.51738557       0.48606295 </v>
    <v>       0.00264912       0.25131540       0.48534980 </v>
    <v>       0.49903408       0.25310545       0.48607327 </v>
    <v>       0.00792718       0.74413260       0.48625482 </v>
    <v>       0.47940537       0.78001729       0.48434143 </v>
    <v>       0.24556611       0.25330180       0.48697866 </v>
    <v>       0.75825375       0.24678794       0.48877480 </v>
    <v>       0.23436419       0.74773467       0.48477982 </v>
    <v>       0.74066522       0.73972862       0.48735280 </v>
    <v>       0.99604734       0.99749337       0.05434504 </v>
    <v>       0.50425942       0.00232871       0.05879200 </v>
    <v>       0.00038692       0.49475853       0.05740233 </v>
    <v>       0.49471252       0.50972707       0.05640917 </v>
    <v>       0.24773619       0.99810665       0.05567866 </v>
    <v>       0.74705282       0.00573707       0.05760798 </v>
    <v>       0.24628114       0.49956259       0.05823117 </v>
    <v>       0.74769992       0.50603672       0.05328012 </v>
    <v>       0.00119990       0.24393934       0.05544973 </v>
    <v>       0.50023778       0.25458504       0.05565997 </v>
    <v>       0.99612347       0.74917159       0.05638224 </v>
    <v>       0.50347682       0.75231913       0.05694388 </v>
    <v>       0.25240124       0.24493358       0.05608419 </v>
    <v>       0.74523653       0.26083830       0.05644231 </v>
    <v>       0.23893302       0.75438489       0.05828391 </v>
    <v>       0.74887584       0.75188955       0.05743517 </v>
    <v>       0.82967723       0.83565220       0.07413389 </v>
    <v>       0.33440672       0.82860872       0.07439130 </v>
    <v>       0.83034423       0.33399933       0.07277471 </v>
    <v>       0.33088710       0.33605814       0.07629150 </v>
    <v>       0.07406163       0.83687693       0.07705061 </v>
    <v>       0.58632046       0.83306904       0.07783186 </v>
    <v>       0.08643447       0.32734644       0.07501933 </v>
    <v>       0.58287057       0.33705739       0.07405538 </v>
    <v>       0.82914189       0.09407127       0.07372827 </v>
    <v>       0.33132775       0.07781909       0.07533198 </v>
    <v>       0.83305081       0.58526525       0.07384309 </v>
    <v>       0.33008377       0.58625405       0.07444136 </v>
    <v>       0.08713179       0.07133423       0.07339906 </v>
    <v>       0.57646062       0.09589563       0.07726303 </v>
    <v>       0.07876504       0.58342437       0.07745519 </v>
    <v>       0.58369402       0.58860506       0.07502555 </v>
    <v>       0.82647595       0.84003245       0.13063923 </v>
    <v>       0.33099082       0.83521636       0.13211782 </v>
    <v>       0.83719014       0.32639423       0.12998767 </v>
    <v>       0.32591664       0.34560164       0.13249291 </v>
    <v>       0.07934802       0.83360118       0.13335931 </v>
    <v>       0.57480499       0.83410029       0.13408659 </v>
    <v>       0.08273581       0.33248949       0.13089775 </v>
    <v>       0.57691651       0.34181837       0.13136678 </v>
    <v>       0.82727259       0.08685962       0.13008608 </v>
    <v>       0.32884612       0.08598805       0.13235285 </v>
    <v>       0.83722586       0.58496230       0.13052026 </v>
    <v>       0.33289901       0.58430503       0.13107478 </v>
    <v>       0.07826017       0.08149697       0.12989515 </v>
    <v>       0.57358191       0.09096032       0.13298544 </v>
    <v>       0.08290089       0.57952857       0.13400451 </v>
    <v>       0.58387704       0.58155005       0.13129666 </v>
    <v>       0.66776130       0.66355278       0.15107265 </v>
    <v>       0.16698570       0.66022943       0.15146155 </v>
    <v>       0.65784442       0.17659476       0.15042572 </v>
    <v>       0.16452501       0.16259960       0.15241500 </v>
    <v>       0.91424522       0.67531288       0.15057768 </v>
    <v>       0.41528376       0.66824828       0.14919369 </v>
    <v>       0.91633811       0.15905020       0.15030742 </v>
    <v>       0.40629289       0.17675131       0.15028526 </v>
    <v>       0.65822268       0.91998492       0.15028818 </v>
    <v>       0.16354166       0.91683115       0.15054519 </v>
    <v>       0.66936038       0.41417528       0.14920716 </v>
    <v>       0.15956760       0.41882205       0.15013006 </v>
    <v>       0.91095935       0.92238557       0.15040793 </v>
    <v>       0.40956737       0.92126961       0.15064109 </v>
    <v>       0.91638521       0.41596898       0.14956152 </v>
    <v>       0.41652563       0.41936773       0.15014665 </v>
    <v>       0.66691256       0.66650248       0.20705400 </v>
    <v>       0.16691388       0.66649014       0.20705898 </v>
    <v>       0.66690344       0.16650572       0.20706598 </v>
    <v>       0.16684061       0.16660814       0.20708179 </v>
    <v>       0.91692531       0.66649854       0.20705917 </v>
    <v>       0.41692519       0.66647869       0.20706536 </v>
    <v>       0.91692513       0.16650243       0.20707472 </v>
    <v>       0.41696414       0.16651435       0.20706744 </v>
    <v>       0.66691798       0.91648233       0.20704252 </v>
    <v>       0.16694951       0.91644073       0.20704633 </v>
    <v>       0.66691595       0.41648963       0.20705459 </v>
    <v>       0.16692059       0.41647589       0.20705572 </v>
    <v>       0.91694874       0.91646326       0.20705239 </v>
    <v>       0.41701031       0.91640425       0.20704821 </v>
    <v>       0.91693836       0.41649175       0.20706075 </v>
    <v>       0.41692036       0.41647944       0.20706344 </v>
    <v>       0.50027961       0.49979386       0.22588077 </v>
    <v>       0.00028667       0.49982324       0.22588116 </v>
    <v>       0.50028664       0.99980050       0.22585523 </v>
    <v>       0.00032078       0.99976605       0.22586109 </v>
    <v>       0.75028151       0.49981755       0.22585414 </v>
    <v>       0.25025454       0.49979892       0.22586794 </v>
    <v>       0.75028825       0.99977207       0.22584361 </v>
    <v>       0.25032210       0.99981099       0.22577891 </v>
    <v>       0.50031888       0.74973106       0.22591361 </v>
    <v>       0.00028389       0.74979836       0.22589213 </v>
    <v>       0.50029421       0.24984773       0.22593303 </v>
    <v>       0.00016690       0.24989246       0.22594903 </v>
    <v>       0.75026935       0.74982309       0.22586657 </v>
    <v>       0.25028658       0.74977243       0.22589330 </v>
    <v>       0.75025457       0.24982803       0.22588788 </v>
    <v>       0.25034884       0.24982284       0.22589789 </v>
    <v>       0.50049311       0.49963021       0.28230625 </v>
    <v>       0.00050731       0.49968964       0.28230852 </v>
    <v>       0.50051337       0.99962586       0.28226966 </v>
    <v>       0.00059072       0.99956340       0.28227770 </v>
    <v>       0.75046229       0.49970725       0.28226706 </v>
    <v>       0.25044429       0.49965557       0.28228563 </v>
    <v>       0.75051129       0.99957675       0.28225109 </v>
    <v>       0.25060219       0.99960679       0.28215271 </v>
    <v>       0.50056702       0.74950278       0.28235546 </v>
    <v>       0.00050130       0.74963838       0.28232342 </v>
    <v>       0.50053847       0.24974354       0.28238246 </v>
    <v>       0.00022542       0.24985044       0.28240287 </v>
    <v>       0.75046211       0.74969256       0.28228703 </v>
    <v>       0.25051790       0.74957991       0.28232458 </v>
    <v>       0.75041085       0.24970731       0.28231668 </v>
    <v>       0.25066370       0.24970363       0.28232852 </v>
    <v>       0.33391163       0.33313787       0.30122888 </v>
    <v>       0.83340478       0.33325410       0.30123815 </v>
    <v>       0.33380580       0.83306384       0.30105916 </v>
    <v>       0.83384037       0.83295310       0.30113372 </v>
    <v>       0.58387220       0.33310598       0.30124068 </v>
    <v>       0.08398666       0.33295631       0.30108732 </v>
    <v>       0.58382905       0.83298177       0.30112001 </v>
    <v>       0.08388577       0.83291119       0.30115694 </v>
    <v>       0.33384538       0.58284026       0.30112976 </v>
    <v>       0.83381855       0.58302647       0.30109686 </v>
    <v>       0.33384517       0.08289958       0.30104592 </v>
    <v>       0.83388197       0.08288339       0.30102268 </v>
    <v>       0.58398402       0.58273447       0.30118588 </v>
    <v>       0.08386202       0.58297580       0.30116987 </v>
    <v>       0.58390039       0.08290785       0.30108312 </v>
    <v>       0.08406826       0.08289581       0.30098030 </v>
    <v>       0.34469924       0.33321157       0.35713037 </v>
    <v>       0.83573611       0.33246507       0.35737357 </v>
    <v>       0.33666172       0.82910660       0.35878883 </v>
    <v>       0.83358580       0.83155077       0.35705878 </v>
    <v>       0.58272446       0.33699691       0.35752427 </v>
    <v>       0.09220002       0.32506214       0.35595859 </v>
    <v>       0.59073606       0.82567370       0.35602590 </v>
    <v>       0.07875732       0.83656488       0.35549969 </v>
    <v>       0.33431351       0.58085345       0.35717775 </v>
    <v>       0.82870110       0.58672253       0.35597863 </v>
    <v>       0.33313871       0.08852934       0.35601214 </v>
    <v>       0.83653906       0.07851255       0.35829767 </v>
    <v>       0.58535455       0.58488830       0.35751538 </v>
    <v>       0.07828278       0.58374603       0.35674530 </v>
    <v>       0.58079503       0.08143906       0.35824549 </v>
    <v>       0.08836268       0.07503423       0.35628900 </v>
    <v>       0.16701705       0.16111917       0.37650550 </v>
    <v>       0.66630551       0.16831768       0.37351628 </v>
    <v>       0.16234854       0.66909579       0.37111104 </v>
    <v>       0.66670788       0.66600063       0.37662156 </v>
    <v>       0.41324575       0.16995985       0.37732897 </v>
    <v>       0.92053034       0.16417110       0.37444744 </v>
    <v>       0.41713001       0.66101310       0.37898333 </v>
    <v>       0.91740669       0.66173457       0.37799572 </v>
    <v>       0.16998843       0.41687347       0.37284257 </v>
    <v>       0.66984152       0.41506253       0.37713110 </v>
    <v>       0.17186405       0.90929936       0.37570156 </v>
    <v>       0.66573826       0.91476757       0.37788780 </v>
    <v>       0.42233807       0.42082283       0.37890101 </v>
    <v>       0.92459420       0.41354114       0.37093127 </v>
    <v>       0.42125132       0.91930998       0.37099471 </v>
    <v>       0.91637799       0.91262318       0.37710641 </v>
    <v>       0.17032327       0.16528332       0.43218813 </v>
    <v>       0.66421912       0.17239765       0.43042906 </v>
    <v>       0.15268964       0.67995987       0.42665885 </v>
    <v>       0.66291663       0.66715208       0.43151684 </v>
    <v>       0.42141840       0.17241834       0.43460916 </v>
    <v>       0.91800062       0.16239469       0.43117744 </v>
    <v>       0.42613346       0.65858747       0.43686221 </v>
    <v>       0.91330489       0.66855331       0.43410349 </v>
    <v>       0.16723767       0.41348299       0.42955001 </v>
    <v>       0.66469953       0.41928410       0.43642699 </v>
    <v>       0.16063625       0.91661853       0.43176113 </v>
    <v>       0.66056610       0.92292370       0.43313133 </v>
    <v>       0.41755688       0.43300080       0.43481269 </v>
    <v>       0.92209479       0.41537110       0.42576929 </v>
    <v>       0.40975344       0.92602999       0.42653592 </v>
    <v>       0.91072846       0.92461153       0.43331764 </v>
    <v>       0.99658247       0.00032982       0.45111827 </v>
    <v>       0.49701479       0.00107602       0.44910733 </v>
    <v>       0.00193432       0.50092058       0.44986470 </v>
    <v>       0.50553910       0.50826471       0.46287301 </v>
    <v>       0.24899331       0.99912993       0.44981705 </v>
    <v>       0.74092623       0.00767697       0.45191272 </v>
    <v>       0.23522708       0.51408074       0.44134184 </v>
    <v>       0.76417120       0.49592187       0.44702876 </v>
    <v>       0.99886524       0.24548406       0.44914140 </v>
    <v>       0.50149277       0.26149128       0.45057612 </v>
    <v>       0.99134215       0.75533751       0.45058482 </v>
    <v>       0.49134282       0.76465855       0.44648914 </v>
    <v>       0.25083552       0.25071991       0.45059500 </v>
    <v>       0.75212943       0.25356365       0.45139183 </v>
    <v>       0.25034415       0.74786297       0.44924366 </v>
    <v>       0.74408731       0.75006445       0.45115146 </v>
   </varray>
  </structure>
  <varray name="primitive_index" >
   <v type="int" >        1 </v>
   <v type="int" >        2 </v>
   <v type="int" >        3 </v>
   <v type="int" >        4 </v>
   <v type="int" >        5 </v>
   <v type="int" >        6 </v>
   <v type="int" >        7 </v>
   <v type="int" >        8 </v>
   <v type="int" >        9 </v>
   <v type="int" >       10 </v>
   <v type="int" >       11 </v>
   <v type="int" >       12 </v>
   <v type="int" >       13 </v>
   <v type="int" >       14 </v>
   <v type="int" >       15 </v>
   <v type="int" >       16 </v>
   <v type="int" >       17 </v>
   <v type="int" >       18 </v>
   <v type="int" >       19 </v>
   <v type="int" >       20 </v>
   <v type="int" >       21 </v>
   <v type="int" >       22 </v>
   <v type="int" >       23 </v>
   <v type="int" >       24 </v>
   <v type="int" >       25 </v>
   <v type="int" >       26 </v>
   <v type="int" >       27 </v>
   <v type="int" >       28 </v>
   <v type="int" >       29 </v>
   <v type="int" >       30 </v>
   <v type="int" >       31 </v>
   <v type="int" >       32 </v>
   <v type="int" >       33 </v>
   <v type="int" >       34 </v>
   <v type="int" >       35 </v>
   <v type="int" >       36 </v>
   <v type="int" >       37 </v>
   <v type="int" >       38 </v>
   <v type="int" >       39 </v>
   <v type="int" >       40 </v>
   <v type="int" >       41 </v>
   <v type="int" >       42 </v>
   <v type="int" >       43 </v>
   <v type="int" >       44 </v>
   <v type="int" >       45 </v>
   <v type="int" >       46 </v>
   <v type="int" >       47 </v>
   <v type="int" >       48 </v>
   <v type="int" >       49 </v>
   <v type="int" >       50 </v>
   <v type="int" >       51 </v>
   <v type="int" >       52 </v>
   <v type="int" >       53 </v>
   <v type="int" >       54 </v>
   <v type="int" >       55 </v>
   <v type="int" >       56 </v>
   <v type="int" >       57 </v>
   <v type="int" >       58 </v>
   <v type="int" >       59 </v>
   <v type="int" >       60 </v>
   <v type="int" >       61 </v>
   <v type="int" >       62 </v>
   <v type="int" >       63 </v>
   <v type="int" >       64 </v>
   <v type="int" >       65 </v>
   <v type="int" >       66 </v>
   <v type="int" >       67 </v>
   <v type="int" >       68 </v>
   <v type="int" >       69 </v>
   <v type="int" >       70 </v>
   <v type="int" >       71 </v>
   <v type="int" >       72 </v>
   <v type="int" >       73 </v>
   <v type="int" >       74 </v>
   <v type="int" >       75 </v>
   <v type="int" >       76 </v>
   <v type="int" >       77 </v>
   <v type="int" >       78 </v>
   <v type="int" >       79 </v>
   <v type="int" >       80 </v>
   <v type="int" >       81 </v>
   <v type="int" >       82 </v>
   <v type="int" >       83 </v>
   <v type="int" >       84 </v>
   <v type="int" >       85 </v>
   <v type="int" >       86 </v>
   <v type="int" >       87 </v>
   <v type="int" >       88 </v>
   <v type="int" >       89 </v>
   <v type="int" >       90 </v>
   <v type="int" >       91 </v>
   <v type="int" >       92 </v>
   <v type="int" >       93 </v>
   <v type="int" >       94 </v>
   <v type="int" >       95 </v>
   <v type="int" >       96 </v>
   <v type="int" >       97 </v>
   <v type="int" >       98 </v>
   <v type="int" >       99 </v>
   <v type="int" >      100 </v>
   <v type="int" >      101 </v>
   <v type="int" >      102 </v>
   <v type="int" >      103 </v>
   <v type="int" >      104 </v>
   <v type="int" >      105 </v>
   <v type="int" >      106 </v>
   <v type="int" >      107 </v>
   <v type="int" >      108 </v>
   <v type="int" >      109 </v>
   <v type="int" >      110 </v>
   <v type="int" >      111 </v>
   <v type="int" >      112 </v>
   <v type="int" >      113 </v>
   <v type="int" >      114 </v>
   <v type="int" >      115 </v>
   <v type="int" >      116 </v>
   <v type="int" >      117 </v>
   <v type="int" >      118 </v>
   <v type="int" >      119 </v>
   <v type="int" >      120 </v>
   <v type="int" >      121 </v>
   <v type="int" >      122 </v>
   <v type="int" >      123 </v>
   <v type="int" >      124 </v>
   <v type="int" >      125 </v>
   <v type="int" >      126 </v>
   <v type="int" >      127 </v>
   <v type="int" >      128 </v>
   <v type="int" >      129 </v>
   <v type="int" >      130 </v>
   <v type="int" >      131 </v>
   <v type="int" >      132 </v>
   <v type="int" >      133 </v>
   <v type="int" >      134 </v>
   <v type="int" >      135 </v>
   <v type="int" >      136 </v>
   <v type="int" >      137 </v>
   <v type="int" >      138 </v>
   <v type="int" >      139 </v>
   <v type="int" >      140 </v>
   <v type="int" >      141 </v>
   <v type="int" >      142 </v>
   <v type="int" >      143 </v>
   <v type="int" >      144 </v>
   <v type="int" >      145 </v>
   <v type="int" >      146 </v>
   <v type="int" >      147 </v>
   <v type="int" >      148 </v>
   <v type="int" >      149 </v>
   <v type="int" >      150 </v>
   <v type="int" >      151 </v>
   <v type="int" >      152 </v>
   <v type="int" >      153 </v>
   <v type="int" >      154 </v>
   <v type="int" >      155 </v>
   <v type="int" >      156 </v>
   <v type="int" >      157 </v>
   <v type="int" >      158 </v>
   <v type="int" >      159 </v>
   <v type="int" >      160 </v>
   <v type="int" >      161 </v>
   <v type="int" >      162 </v>
   <v type="int" >      163 </v>
   <v type="int" >      164 </v>
   <v type="int" >      165 </v>
   <v type="int" >      166 </v>
   <v type="int" >      167 </v>
   <v type="int" >      168 </v>
   <v type="int" >      169 </v>
   <v type="int" >      170 </v>
   <v type="int" >      171 </v>
   <v type="int" >      172 </v>
   <v type="int" >      173 </v>
   <v type="int" >      174 </v>
   <v type="int" >      175 </v>
   <v type="int" >      176 </v>
   <v type="int" >      177 </v>
   <v type="int" >      178 </v>
   <v type="int" >      179 </v>
   <v type="int" >      180 </v>
   <v type="int" >      181 </v>
   <v type="int" >      182 </v>
   <v type="int" >      183 </v>
   <v type="int" >      184 </v>
   <v type="int" >      185 </v>
   <v type="int" >      186 </v>
   <v type="int" >      187 </v>
   <v type="int" >      188 </v>
   <v type="int" >      189 </v>
   <v type="int" >      190 </v>
   <v type="int" >      191 </v>
   <v type="int" >      192 </v>
   <v type="int" >      193 </v>
   <v type="int" >      194 </v>
   <v type="int" >      195 </v>
   <v type="int" >      196 </v>
   <v type="int" >      197 </v>
   <v type="int" >      198 </v>
   <v type="int" >      199 </v>
   <v type="int" >      200 </v>
   <v type="int" >      201 </v>
   <v type="int" >      202 </v>
   <v type="int" >      203 </v>
   <v type="int" >      204 </v>
   <v type="int" >      205 </v>
   <v type="int" >      206 </v>
   <v type="int" >      207 </v>
   <v type="int" >      208 </v>
   <v type="int" >      209 </v>
   <v type="int" >      210 </v>
   <v type="int" >      211 </v>
   <v type="int" >      212 </v>
   <v type="int" >      213 </v>
   <v type="int" >      214 </v>
   <v type="int" >      215 </v>
   <v type="int" >      216 </v>
   <v type="int" >      217 </v>
   <v type="int" >      218 </v>
   <v type="int" >      219 </v>
   <v type="int" >      220 </v>
   <v type="int" >      221 </v>
   <v type="int" >      222 </v>
   <v type="int" >      223 </v>
   <v type="int" >      224 </v>
   <v type="int" >      225 </v>
   <v type="int" >      226 </v>
   <v type="int" >      227 </v>
   <v type="int" >      228 </v>
   <v type="int" >      229 </v>
   <v type="int" >      230 </v>
   <v type="int" >      231 </v>
   <v type="int" >      232 </v>
   <v type="int" >      233 </v>
   <v type="int" >      234 </v>
   <v type="int" >      235 </v>
   <v type="int" >      236 </v>
   <v type="int" >      237 </v>
   <v type="int" >      238 </v>
   <v type="int" >      239 </v>
   <v type="int" >      240 </v>
   <v type="int" >      241 </v>
   <v type="int" >      242 </v>
   <v type="int" >      243 </v>
   <v type="int" >      244 </v>
   <v type="int" >      245 </v>
   <v type="int" >      246 </v>
  </varray>
 </primitive_cell>
 <kpoints>
  <generation param="Gamma">
   <v type="int" name="divisions">       3        3        1 </v>
   <v name="usershift">      0.00000000       0.00000000       0.00000000 </v>
   <v name="genvec1">      0.33333333       0.00000000       0.00000000 </v>
   <v name="genvec2">      0.00000000       0.33333333       0.00000000 </v>
   <v name="genvec3">      0.00000000       0.00000000       1.00000000 </v>
   <v name="shift">      0.00000000       0.00000000       0.00000000 </v>
  </generation>
  <varray name="kpointlist" >
   <v>       0.00000000       0.00000000       0.00000000 </v>
   <v>       0.33333333       0.00000000       0.00000000 </v>
   <v>       0.33333333       0.33333333       0.00000000 </v>
   <v>       0.00000000       0.33333333       0.00000000 </v>
   <v>      -0.33333333       0.33333333       0.00000000 </v>
  </varray>
  <varray name="weights" >
   <v>       0.11111111 </v>
   <v>       0.22222222 </v>
   <v>       0.22222222 </v>
   <v>       0.22222222 </v>
   <v>       0.22222222 </v>
  </varray>
 </kpoints>
 <parameters>
  <separator name="general" >
   <i type="string" name="SYSTEM">Si_surface_6layer</i>
   <i type="logical" name="LCOMPAT"> F  </i>
  </separator>
  <separator name="electronic" >
   <i type="string" name="PREC">accura</i>
   <i name="ENMAX">    540.00000000</i>
   <i name="ENAUG">    644.87300000</i>
   <i name="EDIFF">      0.00010000</i>
   <i type="int" name="IALGO">    38</i>
   <i type="int" name="IWAVPR">    12</i>
   <i type="int" name="NBANDS">   640</i>
   <i type="int" name="NBANDSLOW">    -1</i>
   <i type="int" name="NBANDSHIGH">    -1</i>
   <i name="NELECT">    864.00000000</i>
   <i type="int" name="TURBO">     0</i>
   <i type="int" name="IRESTART">     0</i>
   <i type="int" name="NREBOOT">     0</i>
   <i type="int" name="NMIN">     0</i>
   <i name="EREF">      0.00000000</i>
   <separator name="electronic smearing" >
    <i type="int" name="ISMEAR">     0</i>
    <i name="SIGMA">      0.01000000</i>
    <i name="KSPACING">      0.50000000</i>
    <i type="logical" name="KGAMMA"> T  </i>
    <i type="logical" name="KBLOWUP"> T  </i>
   </separator>
   <separator name="electronic projectors" >
    <i type="logical" name="LREAL"> F  </i>
    <v name="ROPT">      0.00000000      0.00000000      0.00000000      0.00000000</v>
    <i type="int" name="LMAXPAW">  -100</i>
    <i type="int" name="LMAXMIX">     2</i>
    <i type="logical" name="NLSPLINE"> F  </i>
   </separator>
   <separator name="electronic startup" >
    <i type="int" name="ISTART">     1</i>
    <i type="int" name="ICHARG">     0</i>
    <i type="int" name="INIWAV">     1</i>
   </separator>
   <separator name="electronic spin" >
    <i type="int" name="ISPIN">     1</i>
    <i type="logical" name="LNONCOLLINEAR"> F  </i>
    <v name="MAGMOM">      1.00000000      1.00000000      1.00000000      1.00000000      1.00000000      1.00000000      1.00000000      1.00000000      1.00000000      1.00000000      1.00000000      1.00000000      1.00000000      1.00000000      1.00000000      1.00000000      1.00000000      1.00000000      1.00000000      1.00000000
      1.00000000      1.00000000      1.00000000      1.00000000      1.00000000      1.00000000      1.00000000      1.00000000      1.00000000      1.00000000      1.00000000      1.00000000      1.00000000      1.00000000      1.00000000      1.00000000      1.00000000      1.00000000      1.00000000      1.00000000
      1.00000000      1.00000000      1.00000000      1.00000000      1.00000000      1.00000000      1.00000000      1.00000000      1.00000000      1.00000000      1.00000000      1.00000000      1.00000000      1.00000000      1.00000000      1.00000000      1.00000000      1.00000000      1.00000000      1.00000000
      1.00000000      1.00000000      1.00000000      1.00000000      1.00000000      1.00000000      1.00000000      1.00000000      1.00000000      1.00000000      1.00000000      1.00000000      1.00000000      1.00000000      1.00000000      1.00000000      1.00000000      1.00000000      1.00000000      1.00000000
      1.00000000      1.00000000      1.00000000      1.00000000      1.00000000      1.00000000      1.00000000      1.00000000      1.00000000      1.00000000      1.00000000      1.00000000      1.00000000      1.00000000      1.00000000      1.00000000      1.00000000      1.00000000      1.00000000      1.00000000
      1.00000000      1.00000000      1.00000000      1.00000000      1.00000000      1.00000000      1.00000000      1.00000000      1.00000000      1.00000000      1.00000000      1.00000000      1.00000000      1.00000000      1.00000000      1.00000000      1.00000000      1.00000000      1.00000000      1.00000000
      1.00000000      1.00000000      1.00000000      1.00000000      1.00000000      1.00000000      1.00000000      1.00000000      1.00000000      1.00000000      1.00000000      1.00000000      1.00000000      1.00000000      1.00000000      1.00000000      1.00000000      1.00000000      1.00000000      1.00000000
      1.00000000      1.00000000      1.00000000      1.00000000      1.00000000      1.00000000      1.00000000      1.00000000      1.00000000      1.00000000      1.00000000      1.00000000      1.00000000      1.00000000      1.00000000      1.00000000      1.00000000      1.00000000      1.00000000      1.00000000
      1.00000000      1.00000000      1.00000000      1.00000000      1.00000000      1.00000000      1.00000000      1.00000000      1.00000000      1.00000000      1.00000000      1.00000000      1.00000000      1.00000000      1.00000000      1.00000000      1.00000000      1.00000000      1.00000000      1.00000000
      1.00000000      1.00000000      1.00000000      1.00000000      1.00000000      1.00000000      1.00000000      1.00000000      1.00000000      1.00000000      1.00000000      1.00000000      1.00000000      1.00000000      1.00000000      1.00000000      1.00000000      1.00000000      1.00000000      1.00000000
      1.00000000      1.00000000      1.00000000      1.00000000      1.00000000      1.00000000      1.00000000      1.00000000      1.00000000      1.00000000      1.00000000      1.00000000      1.00000000      1.00000000      1.00000000      1.00000000      1.00000000      1.00000000      1.00000000      1.00000000
      1.00000000      1.00000000      1.00000000      1.00000000      1.00000000      1.00000000      1.00000000      1.00000000      1.00000000      1.00000000      1.00000000      1.00000000      1.00000000      1.00000000      1.00000000      1.00000000      1.00000000      1.00000000      1.00000000      1.00000000
      1.00000000      1.00000000      1.00000000      1.00000000      1.00000000      1.00000000</v>
    <i name="NUPDOWN">     -1.00000000</i>
    <i type="logical" name="LSORBIT"> F  </i>
    <v name="SAXIS">      0.00000000      0.00000000      1.00000000</v>
    <i type="logical" name="LSPIRAL"> F  </i>
    <v name="QSPIRAL">      0.00000000      0.00000000      0.00000000</v>
    <i type="logical" name="LZEROZ"> F  </i>
   </separator>
   <separator name="electronic exchange-correlation" >
    <i type="logical" name="LASPH"> F  </i>
    <i type="logical" name="LMETAGGA"> F  </i>
   </separator>
   <separator name="electronic convergence" >
    <i type="int" name="NELM">    60</i>
    <i type="int" name="NELMDL">     0</i>
    <i type="int" name="NELMIN">     5</i>
    <i name="ENINI">    540.00000000</i>
    <separator name="electronic convergence detail" >
     <i type="logical" name="LDIAG"> T  </i>
     <i type="logical" name="LSUBROT"> F  </i>
     <i name="WEIMIN">      0.00100000</i>
     <i name="EBREAK">      0.00000004</i>
     <i name="DEPER">      0.30000000</i>
     <i type="int" name="NRMM">     4</i>
     <i name="TIME">      0.40000000</i>
    </separator>
   </separator>
   <separator name="electronic mixer" >
    <i name="AMIX">      0.40000000</i>
    <i name="BMIX">      1.00000000</i>
    <i name="AMIN">      0.10000000</i>
    <i name="AMIX_MAG">      1.60000000</i>
    <i name="BMIX_MAG">      1.00000000</i>
    <separator name="electronic mixer details" >
     <i type="int" name="IMIX">     4</i>
     <i type="logical" name="MIXFIRST"> F  </i>
     <i type="int" name="MAXMIX">   -45</i>
     <i name="WC">    100.00000000</i>
     <i type="int" name="INIMIX">     1</i>
     <i type="int" name="MIXPRE">     1</i>
     <i type="int" name="MREMOVE">     5</i>
    </separator>
   </separator>
   <separator name="electronic dipolcorrection" >
    <i type="logical" name="LDIPOL"> F  </i>
    <i type="logical" name="LMONO"> F  </i>
    <i type="int" name="IDIPOL">     3</i>
    <i name="EPSILON">      1.00000000</i>
    <v name="DIPOL">   -100.00000000   -100.00000000   -100.00000000</v>
    <i name="EFIELD">      0.00000000</i>
   </separator>
  </separator>
  <separator name="grids" >
   <i type="int" name="NGX">   120</i>
   <i type="int" name="NGY">   120</i>
   <i type="int" name="NGZ">   320</i>
   <i type="int" name="NGXF">   240</i>
   <i type="int" name="NGYF">   240</i>
   <i type="int" name="NGZF">   640</i>
   <i type="logical" name="ADDGRID"> F  </i>
  </separator>
  <separator name="ionic" >
   <i type="int" name="NSW">   100</i>
   <i type="int" name="IBRION">     0</i>
   <i type="int" name="MDALGO">     2</i>
   <i type="int" name="ISIF">     2</i>
   <i name="PSTRESS">      0.00000000</i>
   <i name="EDIFFG">     -0.00950000</i>
   <i type="int" name="NFREE">     0</i>
   <i name="POTIM">      1.00000000</i>
   <i name="SMASS">     -1.00000000</i>
   <i name="SCALEE">      1.00000000</i>
  </separator>
  <separator name="ionic md" >
   <i name="TEBEG">    300.00000000</i>
   <i name="TEEND">    300.00000000</i>
   <i type="int" name="NBLOCK">     1</i>
   <i type="int" name="KBLOCK">   100</i>
   <i type="int" name="NPACO">   256</i>
   <i name="APACO">     10.00000000</i>
  </separator>
  <separator name="symmetry" >
   <i type="int" name="ISYM">     0</i>
   <i name="SYMPREC">      0.00001000</i>
  </separator>
  <separator name="dos" >
   <i type="int" name="LORBIT">     0</i>
   <v name="RWIGS">     -1.00000000     -1.00000000     -1.00000000     -1.00000000</v>
   <i type="int" name="NEDOS">   301</i>
   <i name="EMIN">     10.00000000</i>
   <i name="EMAX">    -10.00000000</i>
   <i name="EFERMI">      0.00000000</i>
  </separator>
  <separator name="writing" >
   <i type="int" name="NWRITE">     1</i>
   <i type="logical" name="LWAVE"> T  </i>
   <i type="logical" name="LDOWNSAMPLE"> F  </i>
   <i type="logical" name="LCHARG"> T  </i>
   <i type="logical" name="LPARD"> F  </i>
   <i type="logical" name="LVTOT"> F  </i>
   <i type="logical" name="LVHAR"> F  </i>
   <i type="logical" name="LELF"> F  </i>
   <i type="logical" name="LOPTICS"> F  </i>
   <v name="STM">      0.00000000      0.00000000      0.00000000      0.00000000      0.00000000      0.00000000      0.00000000</v>
  </separator>
  <separator name="performance" >
   <i type="int" name="NPAR">     8</i>
   <i type="int" name="NSIM">     4</i>
   <i type="int" name="NBLK">    -1</i>
   <i type="logical" name="LPLANE"> T  </i>
   <i type="logical" name="LSCALAPACK"> T  </i>
   <i type="logical" name="LSCAAWARE"> F  </i>
   <i type="logical" name="LSCALU"> F  </i>
   <i type="logical" name="LASYNC"> F  </i>
   <i type="logical" name="LORBITALREAL"> F  </i>
  </separator>
  <separator name="miscellaneous" >
   <i type="int" name="IDIOT">     3</i>
   <i type="int" name="PHON_NSTRUCT">    -1</i>
   <i type="logical" name="LMUSIC"> F  </i>
   <v name="POMASS">     12.01100000      1.00000000      1.00000000     28.08500000</v>
   <v name="DARWINR">      0.00000000      0.00000000      0.00000000      0.00000000</v>
   <v name="DARWINV">      1.00000000      1.00000000      1.00000000      1.00000000</v>
   <i type="logical" name="LCORR"> T  </i>
  </separator>
  <i type="logical" name="GGA_COMPAT"> T  </i>
  <i type="logical" name="LBERRY"> F  </i>
  <i type="int" name="ICORELEVEL">     0</i>
  <i type="logical" name="LDAU"> F  </i>
  <i type="int" name="I_CONSTRAINED_M">     0</i>
  <separator name="electronic exchange-correlation" >
   <i type="string" name="GGA">--</i>
   <i type="int" name="VOSKOWN">     0</i>
   <i type="logical" name="LHFCALC"> F  </i>
   <i type="string" name="PRECFOCK"></i>
   <i type="logical" name="LSYMGRAD"> F  </i>
   <i type="logical" name="LHFONE"> F  </i>
   <i type="logical" name="LRHFCALC"> F  </i>
   <i type="logical" name="LTHOMAS"> F  </i>
   <i type="logical" name="LMODELHF"> F  </i>
   <i type="logical" name="LFOCKACE"> F  </i>
   <i name="ENCUT4O">     -1.00000000</i>
   <i type="int" name="EXXOEP">     0</i>
   <i type="int" name="FOURORBIT">     0</i>
   <i name="AEXX">      0.00000000</i>
   <i name="HFALPHA">      0.00000000</i>
   <i name="MCALPHA">      0.00000000</i>
   <i name="ALDAX">      1.00000000</i>
   <i name="AGGAX">      1.00000000</i>
   <i name="ALDAC">      1.00000000</i>
   <i name="AGGAC">      1.00000000</i>
   <i type="int" name="NKREDX">     1</i>
   <i type="int" name="NKREDY">     1</i>
   <i type="int" name="NKREDZ">     1</i>
   <i type="logical" name="SHIFTRED"> F  </i>
   <i type="logical" name="ODDONLY"> F  </i>
   <i type="logical" name="EVENONLY"> F  </i>
   <i type="int" name="LMAXFOCK">     0</i>
   <i type="int" name="NMAXFOCKAE">     0</i>
   <i type="logical" name="LFOCKAEDFT"> F  </i>
   <i name="HFSCREEN">      0.00000000</i>
   <i name="HFSCREENC">      0.00000000</i>
   <i type="int" name="NBANDSGWLOW">     0</i>
  </separator>
  <separator name="vdW DFT" >
   <i type="logical" name="LUSE_VDW"> F  </i>
   <i name="Zab_VDW">     -0.84910000</i>
   <i name="PARAM1">      0.12340000</i>
   <i name="PARAM2">      1.00000000</i>
   <i name="PARAM3">      0.00000000</i>
  </separator>
  <separator name="model GW" >
   <i type="int" name="MODEL_GW">     0</i>
   <i name="MODEL_EPS0">     20.63739797</i>
   <i name="MODEL_ALPHA">      1.00000000</i>
  </separator>
  <separator name="linear response parameters" >
   <i type="logical" name="LEPSILON"> F  </i>
   <i type="logical" name="LRPA"> F  </i>
   <i type="logical" name="LNABLA"> F  </i>
   <i type="logical" name="LVEL"> F  </i>
   <i name="CSHIFT">      0.10000000</i>
   <i name="OMEGAMAX">     -1.00000000</i>
   <i name="DEG_THRESHOLD">      0.00200000</i>
   <i name="RTIME">     -0.10000000</i>
   <i name="WPLASMAI">      0.00000000</i>
   <v name="DFIELD">      0.00000000      0.00000000      0.00000000</v>
   <v name="WPLASMA">      0.00000000      0.00000000      0.00000000      0.00000000      0.00000000      0.00000000      0.00000000      0.00000000      0.00000000</v>
  </separator>
  <separator name="orbital magnetization" >
   <i type="logical" name="NUCIND"> F  </i>
   <v name="MAGPOS">      0.00000000      0.00000000      0.00000000</v>
   <i type="logical" name="LNICSALL"> T  </i>
   <i type="logical" name="ORBITALMAG"> F  </i>
   <i type="logical" name="LMAGBLOCH"> F  </i>
   <i type="logical" name="LCHIMAG"> F  </i>
   <i type="logical" name="LGAUGE"> T  </i>
   <i type="int" name="MAGATOM">     0</i>
   <v name="MAGDIPOL">      0.00000000      0.00000000      0.00000000</v>
   <v name="AVECCONST">      0.00000000      0.00000000      0.00000000</v>
  </separator>
  <separator name="response functions" >
   <i type="logical" name="LFINITE_TEMPERATURE"> F  </i>
   <i type="logical" name="LADDER"> F  </i>
   <i type="logical" name="LRPAFORCE"> F  </i>
   <i type="logical" name="LFXC"> F  </i>
   <i type="logical" name="LHARTREE"> T  </i>
   <i type="int" name="IBSE">     0</i>
   <v type="int" name="KPOINT">    -1     0     0     0</v>
   <i type="logical" name="LTCTC"> F  </i>
   <i type="logical" name="LTCTE"> F  </i>
   <i type="logical" name="LTETE"> F  </i>
   <i type="logical" name="LTRIPLET"> F  </i>
   <i type="logical" name="LFXCEPS"> F  </i>
   <i type="logical" name="LFXHEG"> F  </i>
   <i type="int" name="NATURALO">     2</i>
   <i type="logical" name="LHOLEGF"> F  </i>
   <i type="logical" name="L2ORDER"> F  </i>
   <i type="logical" name="LDMP1"> F  </i>
   <i type="logical" name="LMP2LT"> F  </i>
   <i type="logical" name="LSMP2LT"> F  </i>
   <i type="logical" name="LGWLF"> F  </i>
   <i name="ENCUTGW">     -2.00000000</i>
   <i name="ENCUTGWSOFT">     -2.00000000</i>
   <i name="ENCUTLF">     -1.00000000</i>
   <i type="logical" name="LESF_SPLINES"> F  </i>
   <i type="int" name="LMAXMP2">    -1</i>
   <i name="SCISSOR">      0.00000000</i>
   <i type="int" name="NOMEGA">     0</i>
   <i type="int" name="NOMEGAR">     0</i>
   <i type="int" name="NBANDSGW">    -1</i>
   <i type="int" name="NBANDSO">    -1</i>
   <i type="int" name="NBANDSV">    -1</i>
   <i type="int" name="NELMGW">     1</i>
   <i type="int" name="NELMHF">     1</i>
   <i type="int" name="DIM">     3</i>
   <i type="int" name="IESPILON">     4</i>
   <i type="int" name="ANTIRES">     0</i>
   <i name="OMEGAMAX">    -30.00000000</i>
   <i name="OMEGAMIN">    -30.00000000</i>
   <i name="OMEGATL">   -200.00000000</i>
   <i type="int" name="OMEGAGRID">     0</i>
   <i name="CSHIFT">     -0.10000000</i>
   <i type="logical" name="LSELFENERGY"> F  </i>
   <i type="logical" name="LSPECTRAL"> F  </i>
   <i type="logical" name="LSPECTRALGW"> F  </i>
   <i type="logical" name="LSINGLES"> F  </i>
   <i type="logical" name="LFERMIGW"> F  </i>
   <i type="logical" name="ODDONLYGW"> F  </i>
   <i type="logical" name="EVENONLYGW"> F  </i>
   <i type="int" name="NKREDLFX">     1</i>
   <i type="int" name="NKREDLFY">     1</i>
   <i type="int" name="NKREDLFZ">     1</i>
   <i type="int" name="MAXMEM">  2800</i>
   <i type="int" name="TELESCOPE">     0</i>
   <i type="int" name="NTAUPAR">    -1</i>
   <i type="int" name="NOMEGAPAR">    -1</i>
   <i name="DAMP_NEWTON">      0.80000001</i>
   <i name="LAMBDA">      1.00000000</i>
  </separator>
  <separator name="External order field" >
   <i name="OFIELD_KAPPA">      0.00000000</i>
   <v name="OFIELD_K">      0.00000000      0.00000000      0.00000000</v>
   <i name="OFIELD_Q6_NEAR">      0.00000000</i>
   <i name="OFIELD_Q6_FAR">      0.00000000</i>
   <i name="OFIELD_A">      0.00000000</i>
  </separator>
  <separator name="optional k-points parameters" >
   <i type="int" name="KPOINTS_OPT_MODE">     1</i>
   <i type="logical" name="LKPOINTS_OPT"> F  </i>
  </separator>
 </parameters>
 <atominfo>
  <atoms>     246 </atoms>
  <types>       4 </types>
  <array name="atoms" >
   <dimension dim="1">ion</dimension>
   <field type="string">element</field>
   <field type="int">atomtype</field>
   <set>
    <rc><c>C </c><c>   1</c></rc>
    <rc><c>C </c><c>   1</c></rc>
    <rc><c>C </c><c>   1</c></rc>
    <rc><c>C </c><c>   1</c></rc>
    <rc><c>C </c><c>   1</c></rc>
    <rc><c>C </c><c>   1</c></rc>
    <rc><c>C </c><c>   1</c></rc>
    <rc><c>C </c><c>   1</c></rc>
    <rc><c>C </c><c>   1</c></rc>
    <rc><c>C </c><c>   1</c></rc>
    <rc><c>C </c><c>   1</c></rc>
    <rc><c>C </c><c>   1</c></rc>
    <rc><c>C </c><c>   1</c></rc>
    <rc><c>C </c><c>   1</c></rc>
    <rc><c>H </c><c>   2</c></rc>
    <rc><c>H </c><c>   2</c></rc>
    <rc><c>H </c><c>   2</c></rc>
    <rc><c>H </c><c>   2</c></rc>
    <rc><c>H </c><c>   2</c></rc>
    <rc><c>H </c><c>   2</c></rc>
    <rc><c>H </c><c>   2</c></rc>
    <rc><c>H </c><c>   2</c></rc>
    <rc><c>H </c><c>   2</c></rc>
    <rc><c>H </c><c>   3</c></rc>
    <rc><c>H </c><c>   3</c></rc>
    <rc><c>H </c><c>   3</c></rc>
    <rc><c>H </c><c>   3</c></rc>
    <rc><c>H </c><c>   3</c></rc>
    <rc><c>H </c><c>   3</c></rc>
    <rc><c>H </c><c>   3</c></rc>
    <rc><c>H </c><c>   3</c></rc>
    <rc><c>H </c><c>   3</c></rc>
    <rc><c>H </c><c>   3</c></rc>
    <rc><c>H </c><c>   3</c></rc>
    <rc><c>H </c><c>   3</c></rc>
    <rc><c>H </c><c>   3</c></rc>
    <rc><c>H </c><c>   3</c></rc>
    <rc><c>H </c><c>   3</c></rc>
    <rc><c>H </c><c>   3</c></rc>
    <rc><c>H </c><c>   3</c></rc>
    <rc><c>H </c><c>   3</c></rc>
    <rc><c>H </c><c>   3</c></rc>
    <rc><c>H </c><c>   3</c></rc>
    <rc><c>H </c><c>   3</c></rc>
    <rc><c>H </c><c>   3</c></rc>
    <rc><c>H </c><c>   3</c></rc>
    <rc><c>H </c><c>   3</c></rc>
    <rc><c>H </c><c>   3</c></rc>
    <rc><c>H </c><c>   3</c></rc>
    <rc><c>H </c><c>   3</c></rc>
    <rc><c>H </c><c>   3</c></rc>
    <rc><c>H </c><c>   3</c></rc>
    <rc><c>H </c><c>   3</c></rc>
    <rc><c>H </c><c>   3</c></rc>
    <rc><c>Si</c><c>   4</c></rc>
    <rc><c>Si</c><c>   4</c></rc>
    <rc><c>Si</c><c>   4</c></rc>
    <rc><c>Si</c><c>   4</c></rc>
    <rc><c>Si</c><c>   4</c></rc>
    <rc><c>Si</c><c>   4</c></rc>
    <rc><c>Si</c><c>   4</c></rc>
    <rc><c>Si</c><c>   4</c></rc>
    <rc><c>Si</c><c>   4</c></rc>
    <rc><c>Si</c><c>   4</c></rc>
    <rc><c>Si</c><c>   4</c></rc>
    <rc><c>Si</c><c>   4</c></rc>
    <rc><c>Si</c><c>   4</c></rc>
    <rc><c>Si</c><c>   4</c></rc>
    <rc><c>Si</c><c>   4</c></rc>
    <rc><c>Si</c><c>   4</c></rc>
    <rc><c>Si</c><c>   4</c></rc>
    <rc><c>Si</c><c>   4</c></rc>
    <rc><c>Si</c><c>   4</c></rc>
    <rc><c>Si</c><c>   4</c></rc>
    <rc><c>Si</c><c>   4</c></rc>
    <rc><c>Si</c><c>   4</c></rc>
    <rc><c>Si</c><c>   4</c></rc>
    <rc><c>Si</c><c>   4</c></rc>
    <rc><c>Si</c><c>   4</c></rc>
    <rc><c>Si</c><c>   4</c></rc>
    <rc><c>Si</c><c>   4</c></rc>
    <rc><c>Si</c><c>   4</c></rc>
    <rc><c>Si</c><c>   4</c></rc>
    <rc><c>Si</c><c>   4</c></rc>
    <rc><c>Si</c><c>   4</c></rc>
    <rc><c>Si</c><c>   4</c></rc>
    <rc><c>Si</c><c>   4</c></rc>
    <rc><c>Si</c><c>   4</c></rc>
    <rc><c>Si</c><c>   4</c></rc>
    <rc><c>Si</c><c>   4</c></rc>
    <rc><c>Si</c><c>   4</c></rc>
    <rc><c>Si</c><c>   4</c></rc>
    <rc><c>Si</c><c>   4</c></rc>
    <rc><c>Si</c><c>   4</c></rc>
    <rc><c>Si</c><c>   4</c></rc>
    <rc><c>Si</c><c>   4</c></rc>
    <rc><c>Si</c><c>   4</c></rc>
    <rc><c>Si</c><c>   4</c></rc>
    <rc><c>Si</c><c>   4</c></rc>
    <rc><c>Si</c><c>   4</c></rc>
    <rc><c>Si</c><c>   4</c></rc>
    <rc><c>Si</c><c>   4</c></rc>
    <rc><c>Si</c><c>   4</c></rc>
    <rc><c>Si</c><c>   4</c></rc>
    <rc><c>Si</c><c>   4</c></rc>
    <rc><c>Si</c><c>   4</c></rc>
    <rc><c>Si</c><c>   4</c></rc>
    <rc><c>Si</c><c>   4</c></rc>
    <rc><c>Si</c><c>   4</c></rc>
    <rc><c>Si</c><c>   4</c></rc>
    <rc><c>Si</c><c>   4</c></rc>
    <rc><c>Si</c><c>   4</c></rc>
    <rc><c>Si</c><c>   4</c></rc>
    <rc><c>Si</c><c>   4</c></rc>
    <rc><c>Si</c><c>   4</c></rc>
    <rc><c>Si</c><c>   4</c></rc>
    <rc><c>Si</c><c>   4</c></rc>
    <rc><c>Si</c><c>   4</c></rc>
    <rc><c>Si</c><c>   4</c></rc>
    <rc><c>Si</c><c>   4</c></rc>
    <rc><c>Si</c><c>   4</c></rc>
    <rc><c>Si</c><c>   4</c></rc>
    <rc><c>Si</c><c>   4</c></rc>
    <rc><c>Si</c><c>   4</c></rc>
    <rc><c>Si</c><c>   4</c></rc>
    <rc><c>Si</c><c>   4</c></rc>
    <rc><c>Si</c><c>   4</c></rc>
    <rc><c>Si</c><c>   4</c></rc>
    <rc><c>Si</c><c>   4</c></rc>
    <rc><c>Si</c><c>   4</c></rc>
    <rc><c>Si</c><c>   4</c></rc>
    <rc><c>Si</c><c>   4</c></rc>
    <rc><c>Si</c><c>   4</c></rc>
    <rc><c>Si</c><c>   4</c></rc>
    <rc><c>Si</c><c>   4</c></rc>
    <rc><c>Si</c><c>   4</c></rc>
    <rc><c>Si</c><c>   4</c></rc>
    <rc><c>Si</c><c>   4</c></rc>
    <rc><c>Si</c><c>   4</c></rc>
    <rc><c>Si</c><c>   4</c></rc>
    <rc><c>Si</c><c>   4</c></rc>
    <rc><c>Si</c><c>   4</c></rc>
    <rc><c>Si</c><c>   4</c></rc>
    <rc><c>Si</c><c>   4</c></rc>
    <rc><c>Si</c><c>   4</c></rc>
    <rc><c>Si</c><c>   4</c></rc>
    <rc><c>Si</c><c>   4</c></rc>
    <rc><c>Si</c><c>   4</c></rc>
    <rc><c>Si</c><c>   4</c></rc>
    <rc><c>Si</c><c>   4</c></rc>
    <rc><c>Si</c><c>   4</c></rc>
    <rc><c>Si</c><c>   4</c></rc>
    <rc><c>Si</c><c>   4</c></rc>
    <rc><c>Si</c><c>   4</c></rc>
    <rc><c>Si</c><c>   4</c></rc>
    <rc><c>Si</c><c>   4</c></rc>
    <rc><c>Si</c><c>   4</c></rc>
    <rc><c>Si</c><c>   4</c></rc>
    <rc><c>Si</c><c>   4</c></rc>
    <rc><c>Si</c><c>   4</c></rc>
    <rc><c>Si</c><c>   4</c></rc>
    <rc><c>Si</c><c>   4</c></rc>
    <rc><c>Si</c><c>   4</c></rc>
    <rc><c>Si</c><c>   4</c></rc>
    <rc><c>Si</c><c>   4</c></rc>
    <rc><c>Si</c><c>   4</c></rc>
    <rc><c>Si</c><c>   4</c></rc>
    <rc><c>Si</c><c>   4</c></rc>
    <rc><c>Si</c><c>   4</c></rc>
    <rc><c>Si</c><c>   4</c></rc>
    <rc><c>Si</c><c>   4</c></rc>
    <rc><c>Si</c><c>   4</c></rc>
    <rc><c>Si</c><c>   4</c></rc>
    <rc><c>Si</c><c>   4</c></rc>
    <rc><c>Si</c><c>   4</c></rc>
    <rc><c>Si</c><c>   4</c></rc>
    <rc><c>Si</c><c>   4</c></rc>
    <rc><c>Si</c><c>   4</c></rc>
    <rc><c>Si</c><c>   4</c></rc>
    <rc><c>Si</c><c>   4</c></rc>
    <rc><c>Si</c><c>   4</c></rc>
    <rc><c>Si</c><c>   4</c></rc>
    <rc><c>Si</c><c>   4</c></rc>
    <rc><c>Si</c><c>   4</c></rc>
    <rc><c>Si</c><c>   4</c></rc>
    <rc><c>Si</c><c>   4</c></rc>
    <rc><c>Si</c><c>   4</c></rc>
    <rc><c>Si</c><c>   4</c></rc>
    <rc><c>Si</c><c>   4</c></rc>
    <rc><c>Si</c><c>   4</c></rc>
    <rc><c>Si</c><c>   4</c></rc>
    <rc><c>Si</c><c>   4</c></rc>
    <rc><c>Si</c><c>   4</c></rc>
    <rc><c>Si</c><c>   4</c></rc>
    <rc><c>Si</c><c>   4</c></rc>
    <rc><c>Si</c><c>   4</c></rc>
    <rc><c>Si</c><c>   4</c></rc>
    <rc><c>Si</c><c>   4</c></rc>
    <rc><c>Si</c><c>   4</c></rc>
    <rc><c>Si</c><c>   4</c></rc>
    <rc><c>Si</c><c>   4</c></rc>
    <rc><c>Si</c><c>   4</c></rc>
    <rc><c>Si</c><c>   4</c></rc>
    <rc><c>Si</c><c>   4</c></rc>
    <rc><c>Si</c><c>   4</c></rc>
    <rc><c>Si</c><c>   4</c></rc>
    <rc><c>Si</c><c>   4</c></rc>
    <rc><c>Si</c><c>   4</c></rc>
    <rc><c>Si</c><c>   4</c></rc>
    <rc><c>Si</c><c>   4</c></rc>
    <rc><c>Si</c><c>   4</c></rc>
    <rc><c>Si</c><c>   4</c></rc>
    <rc><c>Si</c><c>   4</c></rc>
    <rc><c>Si</c><c>   4</c></rc>
    <rc><c>Si</c><c>   4</c></rc>
    <rc><c>Si</c><c>   4</c></rc>
    <rc><c>Si</c><c>   4</c></rc>
    <rc><c>Si</c><c>   4</c></rc>
    <rc><c>Si</c><c>   4</c></rc>
    <rc><c>Si</c><c>   4</c></rc>
    <rc><c>Si</c><c>   4</c></rc>
    <rc><c>Si</c><c>   4</c></rc>
    <rc><c>Si</c><c>   4</c></rc>
    <rc><c>Si</c><c>   4</c></rc>
    <rc><c>Si</c><c>   4</c></rc>
    <rc><c>Si</c><c>   4</c></rc>
    <rc><c>Si</c><c>   4</c></rc>
    <rc><c>Si</c><c>   4</c></rc>
    <rc><c>Si</c><c>   4</c></rc>
    <rc><c>Si</c><c>   4</c></rc>
    <rc><c>Si</c><c>   4</c></rc>
    <rc><c>Si</c><c>   4</c></rc>
    <rc><c>Si</c><c>   4</c></rc>
    <rc><c>Si</c><c>   4</c></rc>
    <rc><c>Si</c><c>   4</c></rc>
    <rc><c>Si</c><c>   4</c></rc>
    <rc><c>Si</c><c>   4</c></rc>
    <rc><c>Si</c><c>   4</c></rc>
    <rc><c>Si</c><c>   4</c></rc>
    <rc><c>Si</c><c>   4</c></rc>
    <rc><c>Si</c><c>   4</c></rc>
    <rc><c>Si</c><c>   4</c></rc>
    <rc><c>Si</c><c>   4</c></rc>
    <rc><c>Si</c><c>   4</c></rc>
    <rc><c>Si</c><c>   4</c></rc>
    <rc><c>Si</c><c>   4</c></rc>
   </set>
  </array>
  <array name="atomtypes" >
   <dimension dim="1">type</dimension>
   <field type="int">atomspertype</field>
   <field type="string">element</field>
   <field>mass</field>
   <field>valence</field>
   <field type="string">pseudopotential</field>
   <set>
    <rc><c>  14</c><c>C </c><c>     12.01100000</c><c>      4.00000000</c><c>  PAW_PBE C_GW 28Sep2005                </c></rc>
    <rc><c>   9</c><c>H </c><c>      1.00000000</c><c>      1.00000000</c><c>  PAW_PBE H_GW 21Apr2008                </c></rc>
    <rc><c>  31</c><c>H </c><c>      1.00000000</c><c>      1.00000000</c><c>  PAW_PBE H_GW 21Apr2008                </c></rc>
    <rc><c> 192</c><c>Si</c><c>     28.08500000</c><c>      4.00000000</c><c>  PAW_PBE Si_GW 04May2012               </c></rc>
   </set>
  </array>
 </atominfo>
 <structure name="initialpos" >
  <crystal>
   <varray name="basis" >
    <v>      15.33298779       0.00000000       0.00000000 </v>
    <v>       7.66649389      13.27875694       0.00000000 </v>
    <v>       0.00000000       0.00000000      41.55799484 </v>
   </varray>
   <i name="volume">   8461.33316923 </i>
   <varray name="rec_basis" >
    <v>       0.06521886      -0.03765413       0.00000000 </v>
    <v>       0.00000000       0.07530825       0.00000000 </v>
    <v>       0.00000000       0.00000000       0.02406276 </v>
   </varray>
  </crystal>
  <varray name="positions" >
   <v>       0.58505500       0.42262734       0.57212467 </v>
   <v>       0.50956492       0.41010642       0.56026557 </v>
   <v>       0.61979319       0.47825526       0.55834719 </v>
   <v>       0.47247470       0.45000039       0.52927241 </v>
   <v>       0.51480804       0.49721717       0.50948590 </v>
   <v>       0.57662403       0.52928696       0.52765605 </v>
   <v>       0.69295098       0.49629566       0.57457785 </v>
   <v>       0.71291014       0.56796893       0.56338751 </v>
   <v>       0.66213819       0.62733456       0.53666796 </v>
   <v>       0.59915187       0.60585305       0.51859851 </v>
   <v>       0.46632891       0.36310743       0.57858201 </v>
   <v>       0.38785626       0.35693699       0.56768580 </v>
   <v>       0.35339167       0.38972617       0.53646560 </v>
   <v>       0.39666039       0.42924096       0.51802910 </v>
   <v>       0.48710967       0.35126365       0.60414084 </v>
   <v>       0.35114014       0.32146657       0.58064381 </v>
   <v>       0.30368649       0.36551058       0.52460124 </v>
   <v>       0.37056625       0.45153033       0.49393941 </v>
   <v>       0.61110407       0.38692209       0.59546669 </v>
   <v>       0.55334102       0.65597891       0.49837283 </v>
   <v>       0.67741770       0.68892103       0.52931811 </v>
   <v>       0.73050252       0.45575747       0.59650850 </v>
   <v>       0.76718165       0.58429207       0.57573822 </v>
   <v>       0.00408666       0.98225566       0.01847871 </v>
   <v>       0.50253423       0.00148690       0.02316266 </v>
   <v>       0.99719150       0.51510346       0.02163018 </v>
   <v>       0.48165371       0.50900684       0.02035922 </v>
   <v>       0.24199688       0.01106692       0.02176318 </v>
   <v>       0.75084384       0.98917817       0.01961176 </v>
   <v>       0.23114260       0.49812118       0.02294263 </v>
   <v>       0.76145663       0.49387818       0.01605173 </v>
   <v>       0.01214208       0.23395662       0.01929278 </v>
   <v>       0.48344055       0.26714332       0.01975490 </v>
   <v>       0.01133985       0.74745323       0.02136314 </v>
   <v>       0.48638181       0.76527700       0.02158989 </v>
   <v>       0.25120895       0.25623824       0.01951097 </v>
   <v>       0.73777481       0.25028803       0.02026005 </v>
   <v>       0.23548741       0.75452199       0.02298976 </v>
   <v>       0.74095836       0.75814708       0.02147390 </v>
   <v>       0.00101943       0.00258776       0.48726265 </v>
   <v>       0.50250478       0.99018170       0.48450004 </v>
   <v>       0.99713994       0.50180740       0.48752073 </v>
   <v>       0.26650408       0.98267690       0.48566325 </v>
   <v>       0.73531003       0.00810576       0.48784341 </v>
   <v>       0.23694842       0.51661731       0.47773098 </v>
   <v>       0.73762228       0.51738557       0.48606295 </v>
   <v>       0.00264912       0.25131540       0.48534980 </v>
   <v>       0.49903408       0.25310545       0.48607327 </v>
   <v>       0.00792718       0.74413260       0.48625482 </v>
   <v>       0.47940537       0.78001729       0.48434143 </v>
   <v>       0.24556611       0.25330180       0.48697866 </v>
   <v>       0.75825375       0.24678794       0.48877480 </v>
   <v>       0.23436419       0.74773467       0.48477982 </v>
   <v>       0.74066522       0.73972862       0.48735280 </v>
   <v>       0.99604734       0.99749337       0.05434504 </v>
   <v>       0.50425942       0.00232871       0.05879200 </v>
   <v>       0.00038692       0.49475853       0.05740233 </v>
   <v>       0.49471252       0.50972707       0.05640917 </v>
   <v>       0.24773619       0.99810665       0.05567866 </v>
   <v>       0.74705282       0.00573707       0.05760798 </v>
   <v>       0.24628114       0.49956259       0.05823117 </v>
   <v>       0.74769992       0.50603672       0.05328012 </v>
   <v>       0.00119990       0.24393934       0.05544973 </v>
   <v>       0.50023778       0.25458504       0.05565997 </v>
   <v>       0.99612347       0.74917159       0.05638224 </v>
   <v>       0.50347682       0.75231913       0.05694388 </v>
   <v>       0.25240124       0.24493358       0.05608419 </v>
   <v>       0.74523653       0.26083830       0.05644231 </v>
   <v>       0.23893302       0.75438489       0.05828391 </v>
   <v>       0.74887584       0.75188955       0.05743517 </v>
   <v>       0.82967723       0.83565220       0.07413389 </v>
   <v>       0.33440672       0.82860872       0.07439130 </v>
   <v>       0.83034423       0.33399933       0.07277471 </v>
   <v>       0.33088710       0.33605814       0.07629150 </v>
   <v>       0.07406163       0.83687693       0.07705061 </v>
   <v>       0.58632046       0.83306904       0.07783186 </v>
   <v>       0.08643447       0.32734644       0.07501933 </v>
   <v>       0.58287057       0.33705739       0.07405538 </v>
   <v>       0.82914189       0.09407127       0.07372827 </v>
   <v>       0.33132775       0.07781909       0.07533198 </v>
   <v>       0.83305081       0.58526525       0.07384309 </v>
   <v>       0.33008377       0.58625405       0.07444136 </v>
   <v>       0.08713179       0.07133423       0.07339906 </v>
   <v>       0.57646062       0.09589563       0.07726303 </v>
   <v>       0.07876504       0.58342437       0.07745519 </v>
   <v>       0.58369402       0.58860506       0.07502555 </v>
   <v>       0.82647595       0.84003245       0.13063923 </v>
   <v>       0.33099082       0.83521636       0.13211782 </v>
   <v>       0.83719014       0.32639423       0.12998767 </v>
   <v>       0.32591664       0.34560164       0.13249291 </v>
   <v>       0.07934802       0.83360118       0.13335931 </v>
   <v>       0.57480499       0.83410029       0.13408659 </v>
   <v>       0.08273581       0.33248949       0.13089775 </v>
   <v>       0.57691651       0.34181837       0.13136678 </v>
   <v>       0.82727259       0.08685962       0.13008608 </v>
   <v>       0.32884612       0.08598805       0.13235285 </v>
   <v>       0.83722586       0.58496230       0.13052026 </v>
   <v>       0.33289901       0.58430503       0.13107478 </v>
   <v>       0.07826017       0.08149697       0.12989515 </v>
   <v>       0.57358191       0.09096032       0.13298544 </v>
   <v>       0.08290089       0.57952857       0.13400451 </v>
   <v>       0.58387704       0.58155005       0.13129666 </v>
   <v>       0.66776130       0.66355278       0.15107265 </v>
   <v>       0.16698570       0.66022943       0.15146155 </v>
   <v>       0.65784442       0.17659476       0.15042572 </v>
   <v>       0.16452501       0.16259960       0.15241500 </v>
   <v>       0.91424522       0.67531288       0.15057768 </v>
   <v>       0.41528376       0.66824828       0.14919369 </v>
   <v>       0.91633811       0.15905020       0.15030742 </v>
   <v>       0.40629289       0.17675131       0.15028526 </v>
   <v>       0.65822268       0.91998492       0.15028818 </v>
   <v>       0.16354166       0.91683115       0.15054519 </v>
   <v>       0.66936038       0.41417528       0.14920716 </v>
   <v>       0.15956760       0.41882205       0.15013006 </v>
   <v>       0.91095935       0.92238557       0.15040793 </v>
   <v>       0.40956737       0.92126961       0.15064109 </v>
   <v>       0.91638521       0.41596898       0.14956152 </v>
   <v>       0.41652563       0.41936773       0.15014665 </v>
   <v>       0.66691256       0.66650248       0.20705400 </v>
   <v>       0.16691388       0.66649014       0.20705898 </v>
   <v>       0.66690344       0.16650572       0.20706598 </v>
   <v>       0.16684061       0.16660814       0.20708179 </v>
   <v>       0.91692531       0.66649854       0.20705917 </v>
   <v>       0.41692519       0.66647869       0.20706536 </v>
   <v>       0.91692513       0.16650243       0.20707472 </v>
   <v>       0.41696414       0.16651435       0.20706744 </v>
   <v>       0.66691798       0.91648233       0.20704252 </v>
   <v>       0.16694951       0.91644073       0.20704633 </v>
   <v>       0.66691595       0.41648963       0.20705459 </v>
   <v>       0.16692059       0.41647589       0.20705572 </v>
   <v>       0.91694874       0.91646326       0.20705239 </v>
   <v>       0.41701031       0.91640425       0.20704821 </v>
   <v>       0.91693836       0.41649175       0.20706075 </v>
   <v>       0.41692036       0.41647944       0.20706344 </v>
   <v>       0.50027961       0.49979386       0.22588077 </v>
   <v>       0.00028667       0.49982324       0.22588116 </v>
   <v>       0.50028664       0.99980050       0.22585523 </v>
   <v>       0.00032078       0.99976605       0.22586109 </v>
   <v>       0.75028151       0.49981755       0.22585414 </v>
   <v>       0.25025454       0.49979892       0.22586794 </v>
   <v>       0.75028825       0.99977207       0.22584361 </v>
   <v>       0.25032210       0.99981099       0.22577891 </v>
   <v>       0.50031888       0.74973106       0.22591361 </v>
   <v>       0.00028389       0.74979836       0.22589213 </v>
   <v>       0.50029421       0.24984773       0.22593303 </v>
   <v>       0.00016690       0.24989246       0.22594903 </v>
   <v>       0.75026935       0.74982309       0.22586657 </v>
   <v>       0.25028658       0.74977243       0.22589330 </v>
   <v>       0.75025457       0.24982803       0.22588788 </v>
   <v>       0.25034884       0.24982284       0.22589789 </v>
   <v>       0.50049311       0.49963021       0.28230625 </v>
   <v>       0.00050731       0.49968964       0.28230852 </v>
   <v>       0.50051337       0.99962586       0.28226966 </v>
   <v>       0.00059072       0.99956340       0.28227770 </v>
   <v>       0.75046229       0.49970725       0.28226706 </v>
   <v>       0.25044429       0.49965557       0.28228563 </v>
   <v>       0.75051129       0.99957675       0.28225109 </v>
   <v>       0.25060219       0.99960679       0.28215271 </v>
   <v>       0.50056702       0.74950278       0.28235546 </v>
   <v>       0.00050130       0.74963838       0.28232342 </v>
   <v>       0.50053847       0.24974354       0.28238246 </v>
   <v>       0.00022542       0.24985044       0.28240287 </v>
   <v>       0.75046211       0.74969256       0.28228703 </v>
   <v>       0.25051790       0.74957991       0.28232458 </v>
   <v>       0.75041085       0.24970731       0.28231668 </v>
   <v>       0.25066370       0.24970363       0.28232852 </v>
   <v>       0.33391163       0.33313787       0.30122888 </v>
   <v>       0.83340478       0.33325410       0.30123815 </v>
   <v>       0.33380580       0.83306384       0.30105916 </v>
   <v>       0.83384037       0.83295310       0.30113372 </v>
   <v>       0.58387220       0.33310598       0.30124068 </v>
   <v>       0.08398665       0.33295631       0.30108732 </v>
   <v>       0.58382905       0.83298177       0.30112001 </v>
   <v>       0.08388577       0.83291119       0.30115694 </v>
   <v>       0.33384538       0.58284026       0.30112976 </v>
   <v>       0.83381855       0.58302647       0.30109686 </v>
   <v>       0.33384517       0.08289958       0.30104592 </v>
   <v>       0.83388197       0.08288339       0.30102268 </v>
   <v>       0.58398402       0.58273447       0.30118588 </v>
   <v>       0.08386202       0.58297580       0.30116987 </v>
   <v>       0.58390039       0.08290785       0.30108312 </v>
   <v>       0.08406826       0.08289581       0.30098030 </v>
   <v>       0.34469924       0.33321157       0.35713037 </v>
   <v>       0.83573611       0.33246507       0.35737357 </v>
   <v>       0.33666172       0.82910660       0.35878883 </v>
   <v>       0.83358580       0.83155077       0.35705878 </v>
   <v>       0.58272446       0.33699691       0.35752427 </v>
   <v>       0.09220002       0.32506214       0.35595859 </v>
   <v>       0.59073606       0.82567370       0.35602590 </v>
   <v>       0.07875732       0.83656488       0.35549969 </v>
   <v>       0.33431351       0.58085345       0.35717775 </v>
   <v>       0.82870110       0.58672253       0.35597863 </v>
   <v>       0.33313871       0.08852934       0.35601214 </v>
   <v>       0.83653906       0.07851255       0.35829767 </v>
   <v>       0.58535455       0.58488830       0.35751538 </v>
   <v>       0.07828278       0.58374603       0.35674530 </v>
   <v>       0.58079503       0.08143906       0.35824549 </v>
   <v>       0.08836268       0.07503423       0.35628900 </v>
   <v>       0.16701705       0.16111917       0.37650550 </v>
   <v>       0.66630551       0.16831768       0.37351628 </v>
   <v>       0.16234854       0.66909579       0.37111104 </v>
   <v>       0.66670788       0.66600063       0.37662156 </v>
   <v>       0.41324575       0.16995985       0.37732897 </v>
   <v>       0.92053034       0.16417110       0.37444744 </v>
   <v>       0.41713001       0.66101310       0.37898333 </v>
   <v>       0.91740669       0.66173457       0.37799572 </v>
   <v>       0.16998843       0.41687347       0.37284257 </v>
   <v>       0.66984152       0.41506253       0.37713110 </v>
   <v>       0.17186405       0.90929936       0.37570156 </v>
   <v>       0.66573826       0.91476757       0.37788780 </v>
   <v>       0.42233807       0.42082283       0.37890101 </v>
   <v>       0.92459420       0.41354114       0.37093127 </v>
   <v>       0.42125132       0.91930998       0.37099471 </v>
   <v>       0.91637799       0.91262318       0.37710641 </v>
   <v>       0.17032327       0.16528332       0.43218813 </v>
   <v>       0.66421912       0.17239765       0.43042906 </v>
   <v>       0.15268964       0.67995987       0.42665885 </v>
   <v>       0.66291663       0.66715208       0.43151684 </v>
   <v>       0.42141840       0.17241834       0.43460916 </v>
   <v>       0.91800062       0.16239469       0.43117744 </v>
   <v>       0.42613346       0.65858747       0.43686221 </v>
   <v>       0.91330489       0.66855331       0.43410349 </v>
   <v>       0.16723767       0.41348299       0.42955001 </v>
   <v>       0.66469953       0.41928410       0.43642699 </v>
   <v>       0.16063625       0.91661853       0.43176113 </v>
   <v>       0.66056610       0.92292370       0.43313133 </v>
   <v>       0.41755688       0.43300080       0.43481269 </v>
   <v>       0.92209479       0.41537110       0.42576929 </v>
   <v>       0.40975344       0.92602999       0.42653592 </v>
   <v>       0.91072846       0.92461153       0.43331764 </v>
   <v>       0.99658247       0.00032982       0.45111827 </v>
   <v>       0.49701479       0.00107602       0.44910733 </v>
   <v>       0.00193432       0.50092058       0.44986470 </v>
   <v>       0.50553910       0.50826471       0.46287301 </v>
   <v>       0.24899331       0.99912993       0.44981705 </v>
   <v>       0.74092623       0.00767697       0.45191272 </v>
   <v>       0.23522708       0.51408074       0.44134184 </v>
   <v>       0.76417120       0.49592187       0.44702876 </v>
   <v>       0.99886524       0.24548406       0.44914140 </v>
   <v>       0.50149277       0.26149128       0.45057612 </v>
   <v>       0.99134215       0.75533751       0.45058482 </v>
   <v>       0.49134282       0.76465855       0.44648914 </v>
   <v>       0.25083552       0.25071991       0.45059500 </v>
   <v>       0.75212943       0.25356365       0.45139183 </v>
   <v>       0.25034415       0.74786297       0.44924366 </v>
   <v>       0.74408731       0.75006445       0.45115146 </v>
  </varray>
  <varray name="selective"  type="logical" >
   <v type="logical" >  T  T  T </v>
   <v type="logical" >  T  T  T </v>
   <v type="logical" >  T  T  T </v>
   <v type="logical" >  T  T  T </v>
   <v type="logical" >  T  T  T </v>
   <v type="logical" >  T  T  T </v>
   <v type="logical" >  T  T  T </v>
   <v type="logical" >  T  T  T </v>
   <v type="logical" >  T  T  T </v>
   <v type="logical" >  T  T  T </v>
   <v type="logical" >  T  T  T </v>
   <v type="logical" >  T  T  T </v>
   <v type="logical" >  T  T  T </v>
   <v type="logical" >  T  T  T </v>
   <v type="logical" >  T  T  T </v>
   <v type="logical" >  T  T  T </v>
   <v type="logical" >  T  T  T </v>
   <v type="logical" >  T  T  T </v>
   <v type="logical" >  T  T  T </v>
   <v type="logical" >  T  T  T </v>
   <v type="logical" >  T  T  T </v>
   <v type="logical" >  T  T  T </v>
   <v type="logical" >  T  T  T </v>
   <v type="logical" >  T  T  T </v>
   <v type="logical" >  T  T  T </v>
   <v type="logical" >  T  T  T </v>
   <v type="logical" >  T  T  T </v>
   <v type="logical" >  T  T  T </v>
   <v type="logical" >  T  T  T </v>
   <v type="logical" >  T  T  T </v>
   <v type="logical" >  T  T  T </v>
   <v type="logical" >  T  T  T </v>
   <v type="logical" >  T  T  T </v>
   <v type="logical" >  T  T  T </v>
   <v type="logical" >  T  T  T </v>
   <v type="logical" >  T  T  T </v>
   <v type="logical" >  T  T  T </v>
   <v type="logical" >  T  T  T </v>
   <v type="logical" >  T  T  T </v>
   <v type="logical" >  T  T  T </v>
   <v type="logical" >  T  T  T </v>
   <v type="logical" >  T  T  T </v>
   <v type="logical" >  T  T  T </v>
   <v type="logical" >  T  T  T </v>
   <v type="logical" >  T  T  T </v>
   <v type="logical" >  T  T  T </v>
   <v type="logical" >  T  T  T </v>
   <v type="logical" >  T  T  T </v>
   <v type="logical" >  T  T  T </v>
   <v type="logical" >  T  T  T </v>
   <v type="logical" >  T  T  T </v>
   <v type="logical" >  T  T  T </v>
   <v type="logical" >  T  T  T </v>
   <v type="logical" >  T  T  T </v>
   <v type="logical" >  T  T  T </v>
   <v type="logical" >  T  T  T </v>
   <v type="logical" >  T  T  T </v>
   <v type="logical" >  T  T  T </v>
   <v type="logical" >  T  T  T </v>
   <v type="logical" >  T  T  T </v>
   <v type="logical" >  T  T  T </v>
   <v type="logical" >  T  T  T </v>
   <v type="logical" >  T  T  T </v>
   <v type="logical" >  T  T  T </v>
   <v type="logical" >  T  T  T </v>
   <v type="logical" >  T  T  T </v>
   <v type="logical" >  T  T  T </v>
   <v type="logical" >  T  T  T </v>
   <v type="logical" >  T  T  T </v>
   <v type="logical" >  T  T  T </v>
   <v type="logical" >  T  T  T </v>
   <v type="logical" >  T  T  T </v>
   <v type="logical" >  T  T  T </v>
   <v type="logical" >  T  T  T </v>
   <v type="logical" >  T  T  T </v>
   <v type="logical" >  T  T  T </v>
   <v type="logical" >  T  T  T </v>
   <v type="logical" >  T  T  T </v>
   <v type="logical" >  T  T  T </v>
   <v type="logical" >  T  T  T </v>
   <v type="logical" >  T  T  T </v>
   <v type="logical" >  T  T  T </v>
   <v type="logical" >  T  T  T </v>
   <v type="logical" >  T  T  T </v>
   <v type="logical" >  T  T  T </v>
   <v type="logical" >  T  T  T </v>
   <v type="logical" >  T  T  T </v>
   <v type="logical" >  T  T  T </v>
   <v type="logical" >  T  T  T </v>
   <v type="logical" >  T  T  T </v>
   <v type="logical" >  T  T  T </v>
   <v type="logical" >  T  T  T </v>
   <v type="logical" >  T  T  T </v>
   <v type="logical" >  T  T  T </v>
   <v type="logical" >  T  T  T </v>
   <v type="logical" >  T  T  T </v>
   <v type="logical" >  T  T  T </v>
   <v type="logical" >  T  T  T </v>
   <v type="logical" >  T  T  T </v>
   <v type="logical" >  T  T  T </v>
   <v type="logical" >  T  T  T </v>
   <v type="logical" >  T  T  T </v>
   <v type="logical" >  T  T  T </v>
   <v type="logical" >  T  T  T </v>
   <v type="logical" >  T  T  T </v>
   <v type="logical" >  T  T  T </v>
   <v type="logical" >  T  T  T </v>
   <v type="logical" >  T  T  T </v>
   <v type="logical" >  T  T  T </v>
   <v type="logical" >  T  T  T </v>
   <v type="logical" >  T  T  T </v>
   <v type="logical" >  T  T  T </v>
   <v type="logical" >  T  T  T </v>
   <v type="logical" >  T  T  T </v>
   <v type="logical" >  T  T  T </v>
   <v type="logical" >  T  T  T </v>
   <v type="logical" >  T  T  T </v>
   <v type="logical" >  T  T  T </v>
   <v type="logical" >  F  F  F </v>
   <v type="logical" >  F  F  F </v>
   <v type="logical" >  F  F  F </v>
   <v type="logical" >  F  F  F </v>
   <v type="logical" >  F  F  F </v>
   <v type="logical" >  F  F  F </v>
   <v type="logical" >  F  F  F </v>
   <v type="logical" >  F  F  F </v>
   <v type="logical" >  F  F  F </v>
   <v type="logical" >  F  F  F </v>
   <v type="logical" >  F  F  F </v>
   <v type="logical" >  F  F  F </v>
   <v type="logical" >  F  F  F </v>
   <v type="logical" >  F  F  F </v>
   <v type="logical" >  F  F  F </v>
   <v type="logical" >  F  F  F </v>
   <v type="logical" >  F  F  F </v>
   <v type="logical" >  F  F  F </v>
   <v type="logical" >  F  F  F </v>
   <v type="logical" >  F  F  F </v>
   <v type="logical" >  F  F  F </v>
   <v type="logical" >  F  F  F </v>
   <v type="logical" >  F  F  F </v>
   <v type="logical" >  F  F  F </v>
   <v type="logical" >  F  F  F </v>
   <v type="logical" >  F  F  F </v>
   <v type="logical" >  F  F  F </v>
   <v type="logical" >  F  F  F </v>
   <v type="logical" >  F  F  F </v>
   <v type="logical" >  F  F  F </v>
   <v type="logical" >  F  F  F </v>
   <v type="logical" >  F  F  F </v>
   <v type="logical" >  F  F  F </v>
   <v type="logical" >  F  F  F </v>
   <v type="logical" >  F  F  F </v>
   <v type="logical" >  F  F  F </v>
   <v type="logical" >  F  F  F </v>
   <v type="logical" >  F  F  F </v>
   <v type="logical" >  F  F  F </v>
   <v type="logical" >  F  F  F </v>
   <v type="logical" >  F  F  F </v>
   <v type="logical" >  F  F  F </v>
   <v type="logical" >  F  F  F </v>
   <v type="logical" >  F  F  F </v>
   <v type="logical" >  F  F  F </v>
   <v type="logical" >  F  F  F </v>
   <v type="logical" >  F  F  F </v>
   <v type="logical" >  F  F  F </v>
   <v type="logical" >  F  F  F </v>
   <v type="logical" >  F  F  F </v>
   <v type="logical" >  F  F  F </v>
   <v type="logical" >  F  F  F </v>
   <v type="logical" >  F  F  F </v>
   <v type="logical" >  F  F  F </v>
   <v type="logical" >  F  F  F </v>
   <v type="logical" >  F  F  F </v>
   <v type="logical" >  F  F  F </v>
   <v type="logical" >  F  F  F </v>
   <v type="logical" >  F  F  F </v>
   <v type="logical" >  F  F  F </v>
   <v type="logical" >  F  F  F </v>
   <v type="logical" >  F  F  F </v>
   <v type="logical" >  F  F  F </v>
   <v type="logical" >  F  F  F </v>
   <v type="logical" >  T  T  T </v>
   <v type="logical" >  T  T  T </v>
   <v type="logical" >  T  T  T </v>
   <v type="logical" >  T  T  T </v>
   <v type="logical" >  T  T  T </v>
   <v type="logical" >  T  T  T </v>
   <v type="logical" >  T  T  T </v>
   <v type="logical" >  T  T  T </v>
   <v type="logical" >  T  T  T </v>
   <v type="logical" >  T  T  T </v>
   <v type="logical" >  T  T  T </v>
   <v type="logical" >  T  T  T </v>
   <v type="logical" >  T  T  T </v>
   <v type="logical" >  T  T  T </v>
   <v type="logical" >  T  T  T </v>
   <v type="logical" >  T  T  T </v>
   <v type="logical" >  T  T  T </v>
   <v type="logical" >  T  T  T </v>
   <v type="logical" >  T  T  T </v>
   <v type="logical" >  T  T  T </v>
   <v type="logical" >  T  T  T </v>
   <v type="logical" >  T  T  T </v>
   <v type="logical" >  T  T  T </v>
   <v type="logical" >  T  T  T </v>
   <v type="logical" >  T  T  T </v>
   <v type="logical" >  T  T  T </v>
   <v type="logical" >  T  T  T </v>
   <v type="logical" >  T  T  T </v>
   <v type="logical" >  T  T  T </v>
   <v type="logical" >  T  T  T </v>
   <v type="logical" >  T  T  T </v>
   <v type="logical" >  T  T  T </v>
   <v type="logical" >  T  T  T </v>
   <v type="logical" >  T  T  T </v>
   <v type="logical" >  T  T  T </v>
   <v type="logical" >  T  T  T </v>
   <v type="logical" >  T  T  T </v>
   <v type="logical" >  T  T  T </v>
   <v type="logical" >  T  T  T </v>
   <v type="logical" >  T  T  T </v>
   <v type="logical" >  T  T  T </v>
   <v type="logical" >  T  T  T </v>
   <v type="logical" >  T  T  T </v>
   <v type="logical" >  T  T  T </v>
   <v type="logical" >  T  T  T </v>
   <v type="logical" >  T  T  T </v>
   <v type="logical" >  T  T  T </v>
   <v type="logical" >  T  T  T </v>
   <v type="logical" >  T  T  T </v>
   <v type="logical" >  T  T  T </v>
   <v type="logical" >  T  T  T </v>
   <v type="logical" >  T  T  T </v>
   <v type="logical" >  T  T  T </v>
   <v type="logical" >  T  T  T </v>
   <v type="logical" >  T  T  T </v>
   <v type="logical" >  T  T  T </v>
   <v type="logical" >  T  T  T </v>
   <v type="logical" >  T  T  T </v>
   <v type="logical" >  T  T  T </v>
   <v type="logical" >  T  T  T </v>
   <v type="logical" >  T  T  T </v>
   <v type="logical" >  T  T  T </v>
   <v type="logical" >  T  T  T </v>
   <v type="logical" >  T  T  T </v>
  </varray>
  <varray name="velocities" >
   <v>       0.00076292      -0.00045226      -0.00011673 </v>
   <v>       0.00044196      -0.00075251      -0.00003936 </v>
   <v>       0.00014118       0.00016871      -0.00016479 </v>
   <v>       0.00022668       0.00024632       0.00021963 </v>
   <v>       0.00019422       0.00001219       0.00000721 </v>
   <v>      -0.00001743       0.00018389       0.00005468 </v>
   <v>      -0.00036670       0.00080160       0.00002980 </v>
   <v>      -0.00078172       0.00148853       0.00020697 </v>
   <v>       0.00013372       0.00011097       0.00012629 </v>
   <v>       0.00021035      -0.00013287       0.00018147 </v>
   <v>       0.00035584      -0.00015140       0.00020024 </v>
   <v>       0.00006518      -0.00034042       0.00050995 </v>
   <v>       0.00002706       0.00020059       0.00042571 </v>
   <v>       0.00071791      -0.00024487       0.00021249 </v>
   <v>       0.00341722      -0.00141950       0.00010002 </v>
[...]
   <v type="logical" >  F  F  F </v>
   <v type="logical" >  F  F  F </v>
   <v type="logical" >  F  F  F </v>
   <v type="logical" >  F  F  F </v>
   <v type="logical" >  F  F  F </v>
   <v type="logical" >  F  F  F </v>
   <v type="logical" >  F  F  F </v>
   <v type="logical" >  F  F  F </v>
   <v type="logical" >  F  F  F </v>
   <v type="logical" >  F  F  F </v>
   <v type="logical" >  F  F  F </v>
   <v type="logical" >  F  F  F </v>
   <v type="logical" >  F  F  F </v>
   <v type="logical" >  F  F  F </v>
   <v type="logical" >  F  F  F </v>
   <v type="logical" >  F  F  F </v>
   <v type="logical" >  F  F  F </v>
   <v type="logical" >  F  F  F </v>
   <v type="logical" >  F  F  F </v>
   <v type="logical" >  F  F  F </v>
   <v type="logical" >  F  F  F </v>
   <v type="logical" >  F  F  F </v>
   <v type="logical" >  F  F  F </v>
   <v type="logical" >  F  F  F </v>
   <v type="logical" >  F  F  F </v>
   <v type="logical" >  F  F  F </v>
   <v type="logical" >  F  F  F </v>
   <v type="logical" >  F  F  F </v>
   <v type="logical" >  F  F  F </v>
   <v type="logical" >  F  F  F </v>
   <v type="logical" >  F  F  F </v>
   <v type="logical" >  F  F  F </v>
   <v type="logical" >  F  F  F </v>
   <v type="logical" >  F  F  F </v>
   <v type="logical" >  F  F  F </v>
   <v type="logical" >  F  F  F </v>
   <v type="logical" >  F  F  F </v>
   <v type="logical" >  F  F  F </v>
   <v type="logical" >  F  F  F </v>
   <v type="logical" >  F  F  F </v>
   <v type="logical" >  F  F  F </v>
   <v type="logical" >  F  F  F </v>
   <v type="logical" >  F  F  F </v>
   <v type="logical" >  F  F  F </v>
   <v type="logical" >  F  F  F </v>
   <v type="logical" >  F  F  F </v>
   <v type="logical" >  F  F  F </v>
   <v type="logical" >  F  F  F </v>
   <v type="logical" >  F  F  F </v>
   <v type="logical" >  F  F  F </v>
   <v type="logical" >  F  F  F </v>
   <v type="logical" >  F  F  F </v>
   <v type="logical" >  T  T  T </v>
   <v type="logical" >  T  T  T </v>
   <v type="logical" >  T  T  T </v>
   <v type="logical" >  T  T  T </v>
   <v type="logical" >  T  T  T </v>
   <v type="logical" >  T  T  T </v>
   <v type="logical" >  T  T  T </v>
   <v type="logical" >  T  T  T </v>
   <v type="logical" >  T  T  T </v>
   <v type="logical" >  T  T  T </v>
   <v type="logical" >  T  T  T </v>
   <v type="logical" >  T  T  T </v>
   <v type="logical" >  T  T  T </v>
   <v type="logical" >  T  T  T </v>
   <v type="logical" >  T  T  T </v>
   <v type="logical" >  T  T  T </v>
   <v type="logical" >  T  T  T </v>
   <v type="logical" >  T  T  T </v>
   <v type="logical" >  T  T  T </v>
   <v type="logical" >  T  T  T </v>
   <v type="logical" >  T  T  T </v>
   <v type="logical" >  T  T  T </v>
   <v type="logical" >  T  T  T </v>
   <v type="logical" >  T  T  T </v>
   <v type="logical" >  T  T  T </v>
   <v type="logical" >  T  T  T </v>
   <v type="logical" >  T  T  T </v>
   <v type="logical" >  T  T  T </v>
   <v type="logical" >  T  T  T </v>
   <v type="logical" >  T  T  T </v>
   <v type="logical" >  T  T  T </v>
   <v type="logical" >  T  T  T </v>
   <v type="logical" >  T  T  T </v>
   <v type="logical" >  T  T  T </v>
   <v type="logical" >  T  T  T </v>
   <v type="logical" >  T  T  T </v>
   <v type="logical" >  T  T  T </v>
   <v type="logical" >  T  T  T </v>
   <v type="logical" >  T  T  T </v>
   <v type="logical" >  T  T  T </v>
   <v type="logical" >  T  T  T </v>
   <v type="logical" >  T  T  T </v>
   <v type="logical" >  T  T  T </v>
   <v type="logical" >  T  T  T </v>
   <v type="logical" >  T  T  T </v>
   <v type="logical" >  T  T  T </v>
   <v type="logical" >  T  T  T </v>
   <v type="logical" >  T  T  T </v>
   <v type="logical" >  T  T  T </v>
   <v type="logical" >  T  T  T </v>
   <v type="logical" >  T  T  T </v>
   <v type="logical" >  T  T  T </v>
   <v type="logical" >  T  T  T </v>
   <v type="logical" >  T  T  T </v>
   <v type="logical" >  T  T  T </v>
   <v type="logical" >  T  T  T </v>
   <v type="logical" >  T  T  T </v>
   <v type="logical" >  T  T  T </v>
   <v type="logical" >  T  T  T </v>
   <v type="logical" >  T  T  T </v>
   <v type="logical" >  T  T  T </v>
   <v type="logical" >  T  T  T </v>
   <v type="logical" >  T  T  T </v>
   <v type="logical" >  T  T  T </v>
  </varray>
  <varray name="velocities" >
   <v>       0.00035280       0.00034129      -0.00012714 </v>
   <v>       0.00015601       0.00026713       0.00013391 </v>
   <v>      -0.00018053       0.00020755      -0.00005928 </v>
   <v>       0.00073524      -0.00037546      -0.00004908 </v>
   <v>      -0.00060701       0.00020418      -0.00026154 </v>
   <v>      -0.00026260       0.00022728      -0.00014857 </v>
   <v>       0.00025429       0.00061622       0.00003934 </v>
   <v>      -0.00037843       0.00041834       0.00004055 </v>
   <v>      -0.00040771       0.00032491      -0.00017169 </v>
   <v>      -0.00016035      -0.00013623       0.00006339 </v>
   <v>       0.00060320      -0.00074272      -0.00007036 </v>
   <v>       0.00042820      -0.00040896       0.00022947 </v>
   <v>      -0.00015566      -0.00002841       0.00003838 </v>
   <v>       0.00073077      -0.00047432       0.00009898 </v>
   <v>      -0.00111227       0.00090627       0.00026779 </v>
   <v>      -0.00001547      -0.00042771       0.00012804 </v>
   <v>       0.00054664      -0.00193182      -0.00044867 </v>
   <v>      -0.00003252       0.00112130      -0.00007005 </v>
   <v>       0.00085848      -0.00095384      -0.00031668 </v>
   <v>       0.00033155      -0.00048511       0.00038541 </v>
   <v>       0.00046394      -0.00123004       0.00011651 </v>
   <v>       0.00021565       0.00075465      -0.00011855 </v>
   <v>      -0.00000478       0.00024967      -0.00024100 </v>
   <v>      -0.00066220       0.00021332       0.00009682 </v>
   <v>      -0.00024023       0.00017195      -0.00034764 </v>
   <v>      -0.00080106       0.00128278       0.00010499 </v>
   <v>      -0.00035376      -0.00006667       0.00007103 </v>
   <v>       0.00009473       0.00064262      -0.00081255 </v>
   <v>      -0.00018090      -0.00051931       0.00070117 </v>
   <v>      -0.00104710       0.00029937      -0.00012792 </v>
   <v>       0.00012371      -0.00083667       0.00051140 </v>
   <v>      -0.00025174      -0.00012037       0.00013856 </v>
   <v>      -0.00075244       0.00126876       0.00026842 </v>
   <v>       0.00065799      -0.00008554      -0.00022589 </v>
   <v>      -0.00167296       0.00092118       0.00003346 </v>
   <v>      -0.00074757       0.00053403       0.00019085 </v>
   <v>      -0.00023549      -0.00095333       0.00017072 </v>
   <v>       0.00072594      -0.00044782      -0.00044227 </v>
   <v>      -0.00073314       0.00032078      -0.00014187 </v>
   <v>      -0.00048987       0.00051841       0.00003409 </v>
   <v>       0.00019818       0.00031873       0.00026976 </v>
   <v>      -0.00078063       0.00011323      -0.00029277 </v>
   <v>      -0.00002302       0.00008908      -0.00009480 </v>
   <v>       0.00032492      -0.00002366       0.00007456 </v>
   <v>      -0.00301511       0.00098072      -0.00018057 </v>
   <v>      -0.00225665       0.00087496      -0.00120841 </v>
   <v>       0.00023961       0.00086122       0.00005047 </v>
   <v>      -0.00073420      -0.00075302       0.00007403 </v>
   <v>       0.00004036      -0.00005872       0.00009664 </v>
   <v>      -0.00089309      -0.00031288      -0.00070224 </v>
   <v>      -0.00037372      -0.00024169       0.00008059 </v>
   <v>       0.00073647      -0.00060734      -0.00040301 </v>
   <v>      -0.00051920      -0.00015513       0.00008568 </v>
   <v>       0.00046360      -0.00032538      -0.00011591 </v>
   <v>      -0.00007105       0.00016246       0.00007708 </v>
   <v>      -0.00000569      -0.00005099      -0.00010642 </v>
   <v>      -0.00007784       0.00031884      -0.00001045 </v>
   <v>      -0.00001222      -0.00020273       0.00002244 </v>
   <v>       0.00001379       0.00003047       0.00004149 </v>
   <v>       0.00009009       0.00005512      -0.00003478 </v>
   <v>      -0.00006447      -0.00009450       0.00001339 </v>
   <v>      -0.00012912       0.00004880      -0.00002903 </v>
   <v>      -0.00034135       0.00027434       0.00006632 </v>
   <v>       0.00025188      -0.00015252       0.00005140 </v>
   <v>      -0.00008470      -0.00011872       0.00002230 </v>
   <v>       0.00000938       0.00007013       0.00007061 </v>
   <v>      -0.00010947      -0.00002853      -0.00002396 </v>
   <v>       0.00011388       0.00004450      -0.00005776 </v>
   <v>       0.00001619       0.00012643      -0.00007234 </v>
   <v>       0.00001199      -0.00003370      -0.00007968 </v>
   <v>       0.00004080       0.00005446      -0.00005840 </v>
   <v>      -0.00011352       0.00004746      -0.00000411 </v>
   <v>       0.00022752       0.00003764      -0.00001527 </v>
   <v>       0.00001072      -0.00013708      -0.00001332 </v>
   <v>       0.00015871      -0.00009501      -0.00002335 </v>
   <v>      -0.00002905       0.00023035       0.00000408 </v>
   <v>      -0.00010190      -0.00000939      -0.00000636 </v>
   <v>      -0.00028686       0.00016571       0.00000897 </v>
   <v>       0.00016550      -0.00050209       0.00000747 </v>
   <v>       0.00024093      -0.00009827       0.00002873 </v>
   <v>      -0.00012649      -0.00014608       0.00000273 </v>
   <v>       0.00005617       0.00001764       0.00004748 </v>
   <v>      -0.00007373       0.00024938      -0.00000637 </v>
   <v>       0.00003849      -0.00025582      -0.00001870 </v>
   <v>       0.00003501       0.00011314      -0.00001321 </v>
   <v>       0.00010464      -0.00019145       0.00002066 </v>
   <v>       0.00011001      -0.00023554       0.00006377 </v>
   <v>      -0.00013434       0.00004497      -0.00006307 </v>
   <v>      -0.00007726       0.00002665       0.00006878 </v>
   <v>       0.00002821       0.00013622      -0.00002153 </v>
   <v>       0.00023965      -0.00023462       0.00004363 </v>
   <v>      -0.00000541       0.00007209      -0.00001711 </v>
   <v>       0.00014696      -0.00016868       0.00005752 </v>
   <v>      -0.00002707      -0.00015484      -0.00003311 </v>
   <v>      -0.00009282       0.00004156      -0.00001938 </v>
   <v>      -0.00019480       0.00019160      -0.00001686 </v>
   <v>      -0.00012643       0.00023378       0.00001569 </v>
   <v>      -0.00008686       0.00007997      -0.00000830 </v>
   <v>      -0.00000179       0.00033928       0.00002127 </v>
   <v>      -0.00004538       0.00002742       0.00003496 </v>
   <v>       0.00021483      -0.00016697      -0.00008505 </v>
   <v>       0.00019982      -0.00021166      -0.00001796 </v>
   <v>      -0.00018608       0.00007054      -0.00002644 </v>
   <v>       0.00031414      -0.00021145      -0.00002522 </v>
   <v>       0.00007924      -0.00023037      -0.00001712 </v>
   <v>       0.00016802       0.00000890      -0.00006889 </v>
   <v>      -0.00003961       0.00010220       0.00005725 </v>
   <v>      -0.00008177       0.00014652       0.00001033 </v>
   <v>       0.00010909      -0.00014913       0.00006602 </v>
   <v>      -0.00004877       0.00014899      -0.00002813 </v>
   <v>       0.00026971      -0.00020888       0.00005315 </v>
   <v>      -0.00004627       0.00002789       0.00005996 </v>
   <v>       0.00015003      -0.00013323       0.00003033 </v>
   <v>       0.00003539       0.00020119       0.00009927 </v>
   <v>       0.00004574       0.00002765      -0.00000567 </v>
   <v>       0.00011081      -0.00012940       0.00008337 </v>
   <v>       0.00003254      -0.00005476      -0.00002216 </v>
   <v>      -0.00009869       0.00001008       0.00006147 </v>
   <v>       0.00000000       0.00000000       0.00000000 </v>
   <v>       0.00000000       0.00000000       0.00000000 </v>
   <v>       0.00000000       0.00000000       0.00000000 </v>
   <v>       0.00000000       0.00000000       0.00000000 </v>
   <v>       0.00000000       0.00000000       0.00000000 </v>
   <v>       0.00000000       0.00000000       0.00000000 </v>
   <v>       0.00000000       0.00000000       0.00000000 </v>
   <v>       0.00000000       0.00000000       0.00000000 </v>
   <v>       0.00000000       0.00000000       0.00000000 </v>
   <v>       0.00000000       0.00000000       0.00000000 </v>
   <v>       0.00000000       0.00000000       0.00000000 </v>
   <v>       0.00000000       0.00000000       0.00000000 </v>
   <v>       0.00000000       0.00000000       0.00000000 </v>
   <v>       0.00000000       0.00000000       0.00000000 </v>
   <v>       0.00000000       0.00000000       0.00000000 </v>
   <v>       0.00000000       0.00000000       0.00000000 </v>
   <v>       0.00000000       0.00000000       0.00000000 </v>
   <v>       0.00000000       0.00000000       0.00000000 </v>
   <v>       0.00000000       0.00000000       0.00000000 </v>
   <v>       0.00000000       0.00000000       0.00000000 </v>
   <v>       0.00000000       0.00000000       0.00000000 </v>
   <v>       0.00000000       0.00000000       0.00000000 </v>
   <v>       0.00000000       0.00000000       0.00000000 </v>
   <v>       0.00000000       0.00000000       0.00000000 </v>
   <v>       0.00000000       0.00000000       0.00000000 </v>
   <v>       0.00000000       0.00000000       0.00000000 </v>
   <v>       0.00000000       0.00000000       0.00000000 </v>
   <v>       0.00000000       0.00000000       0.00000000 </v>
   <v>       0.00000000       0.00000000       0.00000000 </v>
   <v>       0.00000000       0.00000000       0.00000000 </v>
   <v>       0.00000000       0.00000000       0.00000000 </v>
   <v>       0.00000000       0.00000000       0.00000000 </v>
   <v>       0.00000000       0.00000000       0.00000000 </v>
   <v>       0.00000000       0.00000000       0.00000000 </v>
   <v>       0.00000000       0.00000000       0.00000000 </v>
   <v>       0.00000000       0.00000000       0.00000000 </v>
   <v>       0.00000000       0.00000000       0.00000000 </v>
   <v>       0.00000000       0.00000000       0.00000000 </v>
   <v>       0.00000000       0.00000000       0.00000000 </v>
   <v>       0.00000000       0.00000000       0.00000000 </v>
   <v>       0.00000000       0.00000000       0.00000000 </v>
   <v>       0.00000000       0.00000000       0.00000000 </v>
   <v>       0.00000000       0.00000000       0.00000000 </v>
   <v>       0.00000000       0.00000000       0.00000000 </v>
   <v>       0.00000000       0.00000000       0.00000000 </v>
   <v>       0.00000000       0.00000000       0.00000000 </v>
   <v>       0.00000000       0.00000000       0.00000000 </v>
   <v>       0.00000000       0.00000000       0.00000000 </v>
   <v>       0.00000000       0.00000000       0.00000000 </v>
   <v>       0.00000000       0.00000000       0.00000000 </v>
   <v>       0.00000000       0.00000000       0.00000000 </v>
   <v>       0.00000000       0.00000000       0.00000000 </v>
   <v>       0.00000000       0.00000000       0.00000000 </v>
   <v>       0.00000000       0.00000000       0.00000000 </v>
   <v>       0.00000000       0.00000000       0.00000000 </v>
   <v>       0.00000000       0.00000000       0.00000000 </v>
   <v>       0.00000000       0.00000000       0.00000000 </v>
   <v>       0.00000000       0.00000000       0.00000000 </v>
   <v>       0.00000000       0.00000000       0.00000000 </v>
   <v>       0.00000000       0.00000000       0.00000000 </v>
   <v>       0.00000000       0.00000000       0.00000000 </v>
   <v>       0.00000000       0.00000000       0.00000000 </v>
   <v>       0.00000000       0.00000000       0.00000000 </v>
   <v>       0.00000000       0.00000000       0.00000000 </v>
   <v>       0.00015751       0.00012650       0.00003293 </v>
   <v>      -0.00003726       0.00002010      -0.00002460 </v>
   <v>      -0.00023831       0.00007868       0.00006085 </v>
   <v>       0.00007847      -0.00015931       0.00004606 </v>
   <v>      -0.00030810       0.00014946       0.00004868 </v>
   <v>      -0.00007715       0.00018220      -0.00005561 </v>
   <v>       0.00007510       0.00011131      -0.00005663 </v>
   <v>       0.00036688      -0.00043393       0.00002349 </v>
   <v>       0.00006992      -0.00012966       0.00010734 </v>
   <v>      -0.00005482       0.00030052       0.00005319 </v>
   <v>       0.00015676      -0.00020772       0.00000617 </v>
   <v>      -0.00017473       0.00028163      -0.00000065 </v>
   <v>       0.00010656       0.00000647       0.00006060 </v>
   <v>      -0.00022131       0.00008979      -0.00010107 </v>
   <v>      -0.00005651      -0.00008320       0.00001405 </v>
   <v>      -0.00011090       0.00036557       0.00007879 </v>
   <v>      -0.00024485       0.00009784       0.00007398 </v>
   <v>      -0.00011478       0.00002874       0.00007880 </v>
   <v>      -0.00000762       0.00008437       0.00012851 </v>
   <v>      -0.00001803       0.00006259       0.00010851 </v>
   <v>      -0.00041041       0.00020533       0.00003468 </v>
   <v>       0.00031189       0.00001371      -0.00004542 </v>
   <v>       0.00009101       0.00000495       0.00001359 </v>
   <v>      -0.00014718      -0.00006685      -0.00001963 </v>
   <v>      -0.00000523       0.00001858      -0.00001849 </v>
   <v>      -0.00013072       0.00013864       0.00002748 </v>
   <v>      -0.00023971       0.00030103       0.00001543 </v>
   <v>       0.00003355      -0.00001303      -0.00000976 </v>
   <v>      -0.00035078      -0.00006182       0.00007920 </v>
   <v>      -0.00003581       0.00019886       0.00003407 </v>
   <v>       0.00013473       0.00018366       0.00004543 </v>
   <v>       0.00022817      -0.00020664       0.00000263 </v>
   <v>       0.00001471       0.00009476      -0.00006563 </v>
   <v>      -0.00002495      -0.00012952       0.00003474 </v>
   <v>       0.00007583       0.00000460       0.00013777 </v>
   <v>      -0.00007013       0.00037549       0.00006135 </v>
   <v>      -0.00009612       0.00007235      -0.00003679 </v>
   <v>      -0.00003221       0.00034172       0.00002899 </v>
   <v>      -0.00012572      -0.00002699      -0.00000069 </v>
   <v>      -0.00002850       0.00010461      -0.00007092 </v>
   <v>      -0.00002645      -0.00032709       0.00004834 </v>
   <v>       0.00006798      -0.00027851      -0.00001791 </v>
   <v>       0.00016336       0.00003005       0.00005460 </v>
   <v>       0.00009883      -0.00012725      -0.00002149 </v>
   <v>      -0.00028571       0.00004231       0.00005472 </v>
   <v>       0.00035407      -0.00011179       0.00005005 </v>
   <v>       0.00002120      -0.00001674       0.00005740 </v>
   <v>       0.00003940      -0.00027521       0.00001966 </v>
   <v>      -0.00008329       0.00004272       0.00005344 </v>
   <v>      -0.00020501       0.00018042       0.00002538 </v>
   <v>      -0.00001756       0.00009203       0.00023203 </v>
   <v>       0.00011054      -0.00041959       0.00004921 </v>
   <v>      -0.00016273       0.00035646      -0.00000727 </v>
   <v>       0.00026836      -0.00009929       0.00001423 </v>
   <v>       0.00049145      -0.00028461       0.00009128 </v>
   <v>       0.00011112       0.00013422      -0.00003856 </v>
   <v>       0.00000860      -0.00007705       0.00009516 </v>
   <v>       0.00000862      -0.00021438       0.00002721 </v>
   <v>      -0.00001856      -0.00006004       0.00003765 </v>
   <v>       0.00006808       0.00010516       0.00000275 </v>
   <v>       0.00003275      -0.00018582       0.00012849 </v>
   <v>       0.00007485      -0.00016373       0.00004874 </v>
   <v>       0.00005501       0.00020360      -0.00000437 </v>
   <v>       0.00014964      -0.00001527      -0.00003259 </v>
  </varray>
  <nose>
   <v>      -1.00000000       0.00000000     300.00000000     300.00000000 </v>
  </nose>
 </structure>
</modeling>
