 vasp.6.3.2 27Jun22 (build Oct 28 2022 14:47:18) complex                        
  
 executed on             LinuxIFC date 2023.12.08  02:17:30
 running on  640 total cores
 distrk:  each k-point on  128 cores,    5 groups
 distr:  one band on NCORE=  16 cores,    8 groups


--------------------------------------------------------------------------------------------------------


 INCAR:
   SYSTEM = Si_surface_6layer
   IVDW = 12
   ISMEAR = 0
   SIGMA = 0.01
   ENCUT = 540
   EDIFF = 1e-5
   NELMIN = 5
   EDIFFG = -9.5e-3
   PREC = Accurate
   IBRION = 2
   ISIF = 2
   POTIM = 0.25
   NSW = 150
   NBANDS = 640
   NCORE = 16
   KPAR = 5
   ISYM = 0
   IDIPOL = 3

 POTCAR:    PAW_PBE C_GW 28Sep2005                
 POTCAR:    PAW_PBE H_GW 21Apr2008                
 POTCAR:    PAW_PBE H_GW 21Apr2008                
 POTCAR:    PAW_PBE Si_GW 04May2012               
 POTCAR:    PAW_PBE C_GW 28Sep2005                
   SHA256 =  2c64eee1059aeb37bcbfbbf93191b6229a866e6b7fb7be04c2badc02647cde23 C_GW/POTCAR           
   COPYR  = (c) Copyright 28Sep2005 Georg Kresse                                                    
   COPYR  = This file is part of the software VASP. Any use, copying, and all other rights are regul
   COPYR  = If you do not have a valid VASP license, you may not use, copy or distribute this file. 
   VRHFIN =C: s2p2                                                                                  
   LEXCH  = PE                                                                                      
   EATOM  =   147.1560 eV,   10.8157 Ry                                                             
                                                                                                    
   TITEL  = PAW_PBE C_GW 28Sep2005                                                                  
   LULTRA =        F    use ultrasoft PP ?                                                          
   IUNSCR =        0    unscreen: 0-lin 1-nonlin 2-no                                               
   RPACOR =    0.000    partial core radius                                                         
   POMASS =   12.011; ZVAL   =    4.000    mass and valenz                                          
   RCORE  =    1.500    outmost cutoff radius                                                       
   RWIGS  =    1.630; RWIGS  =    0.863    wigner-seitz radius (au A)                               
   ENMAX  =  413.992; ENMIN  =  310.494 eV                                                          
   ICORE  =        2    local potential                                                             
   LCOR   =        T    correct aug charges                                                         
   LPAW   =        T    paw PP                                                                      
   EAUG   =  644.873                                                                                
   DEXC   =    0.000                                                                                
   RMAX   =    1.529    core radius for proj-oper                                                   
   RAUG   =    1.300    factor for augmentation sphere                                              
   RDEP   =    1.501    radius for radial grids                                                     
   RDEPT  =    1.300    core radius for aug-charge                                                  
                                                                                                    
   Atomic configuration                                                                             
    4 entries                                                                                       
     n  l   j            E        occ.                                                              
     1  0  0.50      -273.3789   2.0000                                                             
     2  0  0.50       -13.7508   2.0000                                                             
     2  1  0.50        -5.2854   2.0000                                                             
     3  2  1.50        -5.4423   0.0000                                                             
   Description                                                                                      
     l       E           TYP  RCUT    TYP  RCUT                                                     
     0    -13.7508457     23  1.200                                                                 
     0     95.2407820     23  1.200                                                                 
     1     -5.2854382     23  1.500                                                                 
     1    108.8466080     23  1.500                                                                 
     2     -5.4423304      7  1.500                                                                 
  local pseudopotential read in
  kinetic energy density of atom read in
  atomic valenz-charges read in
  non local Contribution for L=           0  read in
    real space projection operators read in
  non local Contribution for L=           0  read in
    real space projection operators read in
  non local Contribution for L=           1  read in
    real space projection operators read in
  non local Contribution for L=           1  read in
    real space projection operators read in
    PAW grid and wavefunctions read in
 
   number of l-projection  operators is LMAX  =           4
   number of lm-projection operators is LMMAX =           8
 
 POTCAR:    PAW_PBE H_GW 21Apr2008                
   SHA256 =  cecc88617a3d1ece9865646f5d462fc0f44fd1f68d6f2eb08f18a2e421902afb H_GW/POTCAR           
   COPYR  = (c) Copyright 21Apr2008 Georg Kresse                                                    
   COPYR  = This file is part of the software VASP. Any use, copying, and all other rights are regul
   COPYR  = If you do not have a valid VASP license, you may not use, copy or distribute this file. 
   VRHFIN =H: ultrasoft test                                                                        
   LEXCH  = PE                                                                                      
   EATOM  =    12.4884 eV,    0.9179 Ry                                                             
                                                                                                    
   TITEL  = PAW_PBE H_GW 21Apr2008                                                                  
   LULTRA =        F    use ultrasoft PP ?                                                          
   IUNSCR =        0    unscreen: 0-lin 1-nonlin 2-no                                               
   RPACOR =    0.000    partial core radius                                                         
   POMASS =    1.000; ZVAL   =    1.000    mass and valenz                                          
   RCORE  =    1.100    outmost cutoff radius                                                       
   RWIGS  =    1.100; RWIGS  =    0.582    wigner-seitz radius (au A)                               
   ENMAX  =  300.000; ENMIN  =  250.000 eV                                                          
   RCLOC  =    0.701    cutoff for local pot                                                        
   LCOR   =        T    correct aug charges                                                         
   LPAW   =        T    paw PP                                                                      
   EAUG   =  500.000                                                                                
   RMAX   =    1.123    core radius for proj-oper                                                   
   RAUG   =    1.200    factor for augmentation sphere                                              
   RDEP   =    1.112    radius for radial grids                                                     
   RDEPT  =    1.100    core radius for aug-charge                                                  
                                                                                                    
   Atomic configuration                                                                             
    3 entries                                                                                       
     n  l   j            E        occ.                                                              
     1  0  0.50        -6.4927   1.0000                                                             
     2  1  0.50        -3.4015   0.0000                                                             
     3  2  1.50        13.6058   0.0000                                                             
   Description                                                                                      
     l       E           TYP  RCUT    TYP  RCUT                                                     
     0     -6.4927495     23  0.950                                                                 
     0      6.8029130     23  0.950                                                                 
     1     -4.0817478     23  1.100                                                                 
     1    108.8466080     23  1.100                                                                 
     2     81.6349560     23  1.100                                                                 
  local pseudopotential read in
  kinetic energy density of atom read in
  atomic valenz-charges read in
  non local Contribution for L=           0  read in
    real space projection operators read in
  non local Contribution for L=           0  read in
    real space projection operators read in
  non local Contribution for L=           1  read in
    real space projection operators read in
  non local Contribution for L=           1  read in
    real space projection operators read in
  non local Contribution for L=           2  read in
    real space projection operators read in
    PAW grid and wavefunctions read in
 
   number of l-projection  operators is LMAX  =           5
   number of lm-projection operators is LMMAX =          13
 
 POTCAR:    PAW_PBE H_GW 21Apr2008                
   SHA256 =  cecc88617a3d1ece9865646f5d462fc0f44fd1f68d6f2eb08f18a2e421902afb H_GW/POTCAR           
   COPYR  = (c) Copyright 21Apr2008 Georg Kresse                                                    
   COPYR  = This file is part of the software VASP. Any use, copying, and all other rights are regul
   COPYR  = If you do not have a valid VASP license, you may not use, copy or distribute this file. 
   VRHFIN =H: ultrasoft test                                                                        
   LEXCH  = PE                                                                                      
   EATOM  =    12.4884 eV,    0.9179 Ry                                                             
                                                                                                    
   TITEL  = PAW_PBE H_GW 21Apr2008                                                                  
   LULTRA =        F    use ultrasoft PP ?                                                          
   IUNSCR =        0    unscreen: 0-lin 1-nonlin 2-no                                               
   RPACOR =    0.000    partial core radius                                                         
   POMASS =    1.000; ZVAL   =    1.000    mass and valenz                                          
   RCORE  =    1.100    outmost cutoff radius                                                       
   RWIGS  =    1.100; RWIGS  =    0.582    wigner-seitz radius (au A)                               
   ENMAX  =  300.000; ENMIN  =  250.000 eV                                                          
   RCLOC  =    0.701    cutoff for local pot                                                        
   LCOR   =        T    correct aug charges                                                         
   LPAW   =        T    paw PP                                                                      
   EAUG   =  500.000                                                                                
   RMAX   =    1.123    core radius for proj-oper                                                   
   RAUG   =    1.200    factor for augmentation sphere                                              
   RDEP   =    1.112    radius for radial grids                                                     
   RDEPT  =    1.100    core radius for aug-charge                                                  
                                                                                                    
   Atomic configuration                                                                             
    3 entries                                                                                       
     n  l   j            E        occ.                                                              
     1  0  0.50        -6.4927   1.0000                                                             
     2  1  0.50        -3.4015   0.0000                                                             
     3  2  1.50        13.6058   0.0000                                                             
   Description                                                                                      
     l       E           TYP  RCUT    TYP  RCUT                                                     
     0     -6.4927495     23  0.950                                                                 
     0      6.8029130     23  0.950                                                                 
     1     -4.0817478     23  1.100                                                                 
     1    108.8466080     23  1.100                                                                 
     2     81.6349560     23  1.100                                                                 
  local pseudopotential read in
  kinetic energy density of atom read in
  atomic valenz-charges read in
  non local Contribution for L=           0  read in
    real space projection operators read in
  non local Contribution for L=           0  read in
    real space projection operators read in
  non local Contribution for L=           1  read in
    real space projection operators read in
  non local Contribution for L=           1  read in
    real space projection operators read in
  non local Contribution for L=           2  read in
    real space projection operators read in
    PAW grid and wavefunctions read in
 
   number of l-projection  operators is LMAX  =           5
   number of lm-projection operators is LMMAX =          13
 
 POTCAR:    PAW_PBE Si_GW 04May2012               
   SHA256 =  9ee269d4247e69d62ab9db642b0c3f6e4981ddd1f39659ad08dec53e20e43eb1 Si_GW/POTCAR          
   COPYR  = (c) Copyright 04May2012 Georg Kresse                                                    
   COPYR  = This file is part of the software VASP. Any use, copying, and all other rights are regul
   COPYR  = If you do not have a valid VASP license, you may not use, copy or distribute this file. 
   VRHFIN =Si: s2p2                                                                                 
   LEXCH  = PE                                                                                      
   EATOM  =   103.0669 eV,    7.5752 Ry                                                             
                                                                                                    
   TITEL  = PAW_PBE Si_GW 04May2012                                                                 
   LULTRA =        F    use ultrasoft PP ?                                                          
   IUNSCR =        1    unscreen: 0-lin 1-nonlin 2-no                                               
   RPACOR =    1.500    partial core radius                                                         
   POMASS =   28.085; ZVAL   =    4.000    mass and valenz                                          
   RCORE  =    1.900    outmost cutoff radius                                                       
   RWIGS  =    2.480; RWIGS  =    1.312    wigner-seitz radius (au A)                               
   ENMAX  =  245.345; ENMIN  =  184.009 eV                                                          
   ICORE  =        3    local potential                                                             
   LCOR   =        T    correct aug charges                                                         
   LPAW   =        T    paw PP                                                                      
   EAUG   =  412.952                                                                                
   DEXC   =    0.000                                                                                
   RMAX   =    1.950    core radius for proj-oper                                                   
   RAUG   =    1.300    factor for augmentation sphere                                              
   RDEP   =    1.993    radius for radial grids                                                     
   RDEPT  =    2.000    core radius for aug-charge                                                  
                                                                                                    
   Atomic configuration                                                                             
    7 entries                                                                                       
     n  l   j            E        occ.                                                              
     1  0  0.50     -1785.8828   2.0000                                                             
     2  0  0.50      -139.4969   2.0000                                                             
     2  1  1.50       -95.5546   6.0000                                                             
     3  0  0.50       -10.8127   2.0000                                                             
     3  1  0.50        -4.0811   2.0000                                                             
     3  2  1.50        -4.0817   0.0000                                                             
     4  3  2.50        -4.0817   0.0000                                                             
   Description                                                                                      
     l       E           TYP  RCUT    TYP  RCUT                                                     
     0    -10.8127223     23  1.900                                                                 
     0     95.2407820     23  1.900                                                                 
     1     -4.0811372     23  1.900                                                                 
     1     54.4233040     23  1.900                                                                 
     2     -8.1634956     23  1.900                                                                 
     2     81.6349560     23  1.900                                                                 
     3     27.2116520     23  1.900                                                                 
  local pseudopotential read in
  partial core-charges read in
  partial kinetic energy density read in
  kinetic energy density of atom read in
  atomic valenz-charges read in
  non local Contribution for L=           0  read in
    real space projection operators read in
  non local Contribution for L=           0  read in
    real space projection operators read in
  non local Contribution for L=           1  read in
    real space projection operators read in
  non local Contribution for L=           1  read in
    real space projection operators read in
  non local Contribution for L=           2  read in
    real space projection operators read in
  non local Contribution for L=           2  read in
    real space projection operators read in
    PAW grid and wavefunctions read in
 
   number of l-projection  operators is LMAX  =           6
   number of lm-projection operators is LMMAX =          18
 
 -----------------------------------------------------------------------------
|                                                                             |
|               ----> ADVICE to this user running VASP <----                  |
|                                                                             |
|     You have a (more or less) 'large supercell' and for larger cells it     |
|     might be more efficient to use real-space projection operators.         |
|     Therefore, try LREAL= Auto in the INCAR file.                           |
|     Mind: For very accurate calculation, you might also keep the            |
|     reciprocal projection scheme (i.e. LREAL=.FALSE.).                      |
|                                                                             |
 -----------------------------------------------------------------------------

  PAW_PBE C_GW 28Sep2005                :
 energy of atom  1       EATOM= -147.1560
 kinetic energy error for atom=    0.0068 (will be added to EATOM!!)
  PAW_PBE H_GW 21Apr2008                :
 energy of atom  2       EATOM=  -12.4884
 kinetic energy error for atom=    0.0069 (will be added to EATOM!!)
  PAW_PBE H_GW 21Apr2008                :
 energy of atom  3       EATOM=  -12.4884
 kinetic energy error for atom=    0.0069 (will be added to EATOM!!)
  PAW_PBE Si_GW 04May2012               :
 energy of atom  4       EATOM= -103.0669
 kinetic energy error for atom=    0.0005 (will be added to EATOM!!)
 
 
 POSCAR: 4x4_si_surface_from540eV_1x1x1conv
  positions in direct lattice
  velocities in cartesian coordinates
 exchange correlation table for  LEXCH =        8
   RHO(1)=    0.500       N(1)  =     2000
   RHO(2)=  100.500       N(2)  =     4000
 


--------------------------------------------------------------------------------------------------------


 ion  position               nearest neighbor table
   1  0.493  0.411  0.571-  19 1.09   3 1.39   2 1.40
   2  0.404  0.479  0.555-   1 1.40  11 1.43   4 1.45
   3  0.586  0.383  0.557-   1 1.39   7 1.43   6 1.45
   4  0.409  0.513  0.523-  14 1.41   5 1.43   2 1.45
   5  0.503  0.477  0.507-   4 1.43   6 1.43 234 1.96
   6  0.591  0.420  0.525-  10 1.42   5 1.43   3 1.45
   7  0.676  0.325  0.575-  22 1.09   8 1.37   3 1.43
   8  0.768  0.309  0.564-  23 1.09   7 1.37   9 1.42
   9  0.773  0.350  0.534-  21 1.09  10 1.37   8 1.42
  10  0.688  0.402  0.516-  20 1.08   9 1.37   6 1.42
  11  0.309  0.520  0.571-  15 1.09  12 1.37   2 1.43
  12  0.223  0.595  0.557-  16 1.09  11 1.37  13 1.42
  13  0.227  0.631  0.526-  17 1.09  14 1.37  12 1.42
  14  0.317  0.589  0.510-  18 1.09  13 1.37   4 1.41
  15  0.307  0.491  0.595-  11 1.09
  16  0.151  0.627  0.570-  12 1.09
  17  0.159  0.691  0.515-  13 1.09
  18  0.320  0.616  0.486-  14 1.09
  19  0.489  0.383  0.594-   1 1.09
  20  0.693  0.434  0.493-  10 1.08
  21  0.844  0.341  0.526-   9 1.09
  22  0.670  0.297  0.599-   7 1.09
  23  0.836  0.266  0.579-   8 1.09
  24  0.000  1.000  0.021-  55 1.50
  25  0.500  1.000  0.021-  56 1.50
  26  0.000  0.500  0.021-  57 1.50
  27  0.500  0.500  0.021-  58 1.50
  28  0.250  1.000  0.021-  59 1.50
  29  0.750  1.000  0.021-  60 1.50
  30  0.250  0.500  0.021-  61 1.50
  31  0.750  0.500  0.021-  62 1.50
  32  0.000  0.250  0.021-  63 1.50
  33  0.500  0.250  0.021-  64 1.50
  34  0.000  0.750  0.021-  65 1.50
  35  0.500  0.750  0.021-  66 1.50
  36  0.250  0.250  0.021-  67 1.50
  37  0.750  0.250  0.021-  68 1.50
  38  0.250  0.750  0.021-  69 1.50
  39  0.750  0.750  0.021-  70 1.50
  40  0.005  0.999  0.487- 231 1.50
  41  0.501  0.999  0.488- 232 1.50
  42  0.004  0.496  0.487- 233 1.50
  43  0.248  0.998  0.487- 235 1.50
  44  0.750  0.002  0.487- 236 1.50
  45  0.242  0.486  0.486- 237 1.49
  46  0.761  0.510  0.485- 238 1.50
  47  0.998  0.252  0.487- 239 1.51
  48  0.505  0.245  0.488- 240 1.50
  49  0.998  0.751  0.488- 241 1.51
  50  0.506  0.752  0.488- 242 1.50
  51  0.248  0.254  0.487- 243 1.50
  52  0.756  0.234  0.486- 244 1.50
  53  0.236  0.775  0.486- 245 1.50
  54  0.750  0.748  0.487- 246 1.50
  55  0.000  1.000  0.057-  24 1.50  79 2.34  75 2.34  83 2.34
  56  0.500  1.000  0.057-  25 1.50  84 2.34  76 2.34  80 2.34
  57  0.000  0.500  0.057-  26 1.50  81 2.34  85 2.34  77 2.34
  58  0.500  0.500  0.057-  27 1.50  78 2.34  82 2.34  86 2.34
  59  0.250  1.000  0.057-  28 1.50  72 2.34  83 2.34  80 2.34
  60  0.750  1.000  0.057-  29 1.50  79 2.34  84 2.34  71 2.34
  61  0.250  0.500  0.057-  30 1.50  74 2.34  85 2.34  82 2.34
  62  0.750  0.500  0.057-  31 1.50  81 2.34  86 2.34  73 2.34
  63  0.000  0.250  0.057-  32 1.50  77 2.34  73 2.34  83 2.34
  64  0.500  0.250  0.057-  33 1.50  84 2.34  74 2.34  78 2.34
  65  0.000  0.750  0.057-  34 1.50  71 2.34  75 2.34  85 2.34
  66  0.500  0.750  0.057-  35 1.50  76 2.34  72 2.34  86 2.34
  67  0.250  0.250  0.057-  36 1.50  74 2.34  77 2.34  80 2.34
  68  0.750  0.250  0.057-  37 1.50  79 2.34  73 2.34  78 2.34
  69  0.250  0.750  0.057-  38 1.50  75 2.34  72 2.34  82 2.34
  70  0.750  0.750  0.057-  39 1.50  81 2.34  76 2.34  71 2.34
  71  0.834  0.833  0.075-  65 2.34  70 2.34  60 2.34  87 2.35
  72  0.334  0.833  0.075-  69 2.34  59 2.34  66 2.34  88 2.35
  73  0.834  0.333  0.075-  63 2.34  68 2.34  62 2.34  89 2.35
  74  0.334  0.333  0.075-  67 2.34  61 2.34  64 2.34  90 2.35
  75  0.084  0.833  0.075-  69 2.34  65 2.34  55 2.34  91 2.35
  76  0.584  0.833  0.075-  66 2.34  56 2.34  70 2.34  92 2.35
  77  0.084  0.333  0.075-  63 2.34  67 2.34  57 2.34  93 2.35
  78  0.584  0.333  0.075-  58 2.34  68 2.34  64 2.34  94 2.35
  79  0.834  0.083  0.075-  68 2.34  55 2.34  60 2.34  95 2.35
  80  0.334  0.083  0.075-  67 2.34  59 2.34  56 2.34  96 2.35
  81  0.834  0.583  0.075-  57 2.34  62 2.34  70 2.34  97 2.35
  82  0.334  0.583  0.075-  58 2.34  69 2.34  61 2.34  98 2.35
  83  0.084  0.083  0.075-  63 2.34  59 2.34  55 2.34  99 2.35
  84  0.584  0.083  0.075-  56 2.34  64 2.34  60 2.34 100 2.35
  85  0.084  0.583  0.075-  61 2.34  65 2.34  57 2.34 101 2.35
  86  0.584  0.583  0.075-  58 2.34  62 2.34  66 2.34 102 2.35
  87  0.834  0.833  0.132-  71 2.35 111 2.35 115 2.35 107 2.35
  88  0.334  0.833  0.132-  72 2.35 116 2.35 112 2.35 108 2.35
  89  0.834  0.333  0.132-  73 2.35 113 2.35 109 2.35 117 2.35
  90  0.334  0.333  0.132-  74 2.35 110 2.35 118 2.35 114 2.35
  91  0.084  0.833  0.132-  75 2.35 112 2.35 115 2.35 104 2.35
  92  0.584  0.833  0.132-  76 2.35 116 2.35 111 2.35 103 2.35
  93  0.084  0.333  0.132-  77 2.35 114 2.35 117 2.35 106 2.35
  94  0.584  0.333  0.132-  78 2.35 105 2.35 113 2.35 118 2.35
  95  0.834  0.083  0.132-  79 2.35 109 2.35 115 2.35 105 2.35
  96  0.334  0.083  0.132-  80 2.35 116 2.35 110 2.35 106 2.35
  97  0.834  0.583  0.132-  81 2.35 117 2.35 103 2.35 107 2.35
  98  0.334  0.583  0.132-  82 2.35 104 2.35 118 2.35 108 2.35
  99  0.084  0.083  0.132-  83 2.35 112 2.35 109 2.35 106 2.35
 100  0.584  0.083  0.132-  84 2.35 110 2.35 105 2.35 111 2.35
 101  0.084  0.583  0.132-  85 2.35 104 2.35 114 2.35 107 2.35
 102  0.584  0.583  0.132-  86 2.35 103 2.35 113 2.35 108 2.35
 103  0.667  0.666  0.151- 119 2.35  97 2.35  92 2.35 102 2.35
 104  0.167  0.666  0.151- 120 2.35  98 2.35 101 2.35  91 2.35
 105  0.667  0.166  0.151- 121 2.35  94 2.35  95 2.35 100 2.35
 106  0.167  0.166  0.151- 122 2.35  93 2.35  99 2.35  96 2.35
 107  0.917  0.666  0.151- 123 2.35  97 2.35 101 2.35  87 2.35
 108  0.417  0.666  0.151- 124 2.35  88 2.35  98 2.35 102 2.35
 109  0.917  0.166  0.151- 125 2.35  95 2.35  99 2.35  89 2.35
 110  0.417  0.166  0.151- 126 2.35  90 2.35 100 2.35  96 2.35
 111  0.667  0.916  0.151- 127 2.35  92 2.35 100 2.35  87 2.35
 112  0.167  0.916  0.151- 128 2.35  88 2.35  91 2.35  99 2.35
 113  0.667  0.416  0.151- 129 2.35  89 2.35  94 2.35 102 2.35
 114  0.167  0.416  0.151- 130 2.35  90 2.35 101 2.35  93 2.35
 115  0.917  0.916  0.151- 131 2.35  95 2.35  91 2.35  87 2.35
 116  0.417  0.916  0.151- 132 2.35  88 2.35  92 2.35  96 2.35
 117  0.917  0.417  0.151- 133 2.35  97 2.35  93 2.35  89 2.35
 118  0.417  0.416  0.151- 134 2.35  90 2.35  98 2.35  94 2.35
 119  0.667  0.667  0.207- 143 2.35 139 2.35 147 2.35 103 2.35
 120  0.167  0.666  0.207- 144 2.35 104 2.35 148 2.35 140 2.35
 121  0.667  0.167  0.207- 145 2.35 105 2.35 149 2.35 141 2.35
 122  0.167  0.167  0.207- 142 2.35 106 2.35 150 2.35 146 2.35
 123  0.917  0.666  0.207- 147 2.35 107 2.35 144 2.35 136 2.35
 124  0.417  0.666  0.207- 148 2.35 108 2.35 143 2.35 135 2.35
 125  0.917  0.167  0.207- 109 2.35 149 2.35 146 2.35 138 2.35
 126  0.417  0.167  0.207- 150 2.35 110 2.35 137 2.35 145 2.35
 127  0.667  0.916  0.207- 137 2.35 141 2.35 111 2.35 147 2.35
 128  0.167  0.916  0.207- 138 2.35 142 2.35 112 2.35 148 2.35
 129  0.667  0.416  0.207- 135 2.35 113 2.35 139 2.35 149 2.35
 130  0.167  0.416  0.207- 136 2.35 140 2.35 114 2.35 150 2.35
 131  0.917  0.916  0.207- 141 2.35 115 2.35 138 2.35 144 2.35
 132  0.417  0.916  0.207- 142 2.35 116 2.35 137 2.35 143 2.35
 133  0.917  0.416  0.207- 139 2.35 117 2.35 146 2.35 136 2.35
 134  0.417  0.416  0.207- 140 2.35 118 2.35 135 2.35 145 2.35
 135  0.500  0.500  0.226- 151 2.34 129 2.35 134 2.35 124 2.35
 136  0.000  0.500  0.226- 152 2.35 130 2.35 123 2.35 133 2.35
 137  0.500  1.000  0.226- 153 2.34 127 2.35 132 2.35 126 2.35
 138  0.000  1.000  0.226- 154 2.34 128 2.35 131 2.35 125 2.35
 139  0.750  0.500  0.226- 155 2.34 133 2.35 119 2.35 129 2.35
 140  0.250  0.500  0.226- 156 2.34 134 2.35 130 2.35 120 2.35
 141  0.750  1.000  0.226- 157 2.34 131 2.35 127 2.35 121 2.35
 142  0.250  1.000  0.226- 158 2.34 132 2.35 128 2.35 122 2.35
 143  0.500  0.750  0.226- 159 2.35 119 2.35 124 2.35 132 2.35
 144  0.000  0.750  0.226- 160 2.35 120 2.35 123 2.35 131 2.35
 145  0.500  0.250  0.226- 161 2.35 121 2.35 134 2.35 126 2.35
 146  0.000  0.250  0.226- 162 2.35 133 2.35 125 2.35 122 2.35
 147  0.750  0.750  0.226- 163 2.34 123 2.35 127 2.35 119 2.35
 148  0.250  0.750  0.226- 164 2.35 124 2.35 120 2.35 128 2.35
 149  0.750  0.250  0.226- 165 2.35 125 2.35 121 2.35 129 2.35
 150  0.250  0.250  0.226- 166 2.35 126 2.35 130 2.35 122 2.35
 151  0.500  0.500  0.282- 135 2.34 175 2.35 171 2.35 179 2.35
 152  0.001  0.500  0.282- 136 2.35 176 2.35 180 2.35 172 2.35
 153  0.501  1.000  0.282- 137 2.34 177 2.35 181 2.35 173 2.35
 154  0.001  1.000  0.282- 138 2.34 178 2.35 182 2.35 174 2.35
 155  0.750  0.500  0.282- 139 2.34 179 2.35 168 2.35 176 2.35
 156  0.250  0.500  0.282- 140 2.34 175 2.35 180 2.35 167 2.35
 157  0.751  1.000  0.282- 141 2.34 178 2.35 181 2.35 170 2.35
 158  0.251  1.000  0.282- 142 2.34 182 2.35 177 2.35 169 2.35
 159  0.501  0.750  0.282- 143 2.35 169 2.35 173 2.35 179 2.35
 160  0.001  0.750  0.282- 144 2.35 170 2.35 174 2.35 180 2.35
 161  0.501  0.250  0.282- 145 2.35 167 2.35 181 2.35 171 2.35
 162  0.000  0.250  0.282- 146 2.35 182 2.35 172 2.35 168 2.35
 163  0.750  0.750  0.282- 147 2.34 173 2.35 176 2.35 170 2.35
 164  0.251  0.750  0.282- 148 2.35 174 2.35 169 2.35 175 2.35
 165  0.750  0.250  0.282- 149 2.35 168 2.35 171 2.35 178 2.35
 166  0.251  0.250  0.282- 150 2.35 172 2.35 177 2.35 167 2.35
 167  0.334  0.333  0.301- 156 2.35 161 2.35 166 2.35 183 2.36
 168  0.833  0.333  0.301- 155 2.35 165 2.35 162 2.35 184 2.36
 169  0.334  0.833  0.301- 159 2.35 158 2.35 164 2.35 185 2.36
 170  0.834  0.833  0.301- 186 2.35 160 2.35 163 2.35 157 2.35
 171  0.584  0.333  0.301- 151 2.35 165 2.35 161 2.35 187 2.36
 172  0.084  0.333  0.301- 188 2.32 166 2.35 152 2.35 162 2.35
 173  0.584  0.833  0.301- 189 2.34 163 2.35 153 2.35 159 2.35
 174  0.084  0.833  0.301- 190 2.34 164 2.35 160 2.35 154 2.35
 175  0.334  0.583  0.301- 156 2.35 151 2.35 164 2.35 191 2.37
 176  0.834  0.583  0.301- 192 2.34 152 2.35 163 2.35 155 2.35
 177  0.334  0.083  0.301- 158 2.35 153 2.35 166 2.35 193 2.35
 178  0.834  0.083  0.301- 194 2.34 157 2.35 154 2.35 165 2.35
 179  0.584  0.583  0.301- 155 2.35 151 2.35 159 2.35 195 2.36
 180  0.084  0.583  0.301- 196 2.34 156 2.35 152 2.35 160 2.35
 181  0.584  0.083  0.301- 197 2.34 157 2.35 153 2.35 161 2.35
 182  0.084  0.083  0.301- 198 2.33 158 2.35 154 2.35 162 2.35
 183  0.335  0.333  0.358- 207 2.34 203 2.35 167 2.36 211 2.37
 184  0.832  0.334  0.358- 212 2.35 204 2.35 168 2.36 208 2.36
 185  0.335  0.831  0.358- 209 2.34 213 2.35 169 2.36 205 2.37
 186  0.834  0.833  0.358- 170 2.35 206 2.35 210 2.35 214 2.35
 187  0.583  0.334  0.358- 200 2.35 211 2.35 208 2.35 171 2.36
 188  0.084  0.332  0.357- 172 2.32 207 2.34 212 2.34 199 2.35
 189  0.583  0.834  0.357- 173 2.34 202 2.34 213 2.35 210 2.35
 190  0.084  0.832  0.358- 209 2.34 174 2.34 214 2.35 201 2.35
 191  0.335  0.583  0.358- 211 2.35 201 2.35 205 2.35 175 2.37
 192  0.834  0.583  0.357- 176 2.34 212 2.35 202 2.35 206 2.35
 193  0.334  0.083  0.358- 199 2.35 177 2.35 213 2.35 203 2.35
 194  0.834  0.083  0.357- 178 2.34 204 2.35 214 2.35 200 2.35
 195  0.583  0.583  0.358- 202 2.35 208 2.35 205 2.35 179 2.36
 196  0.084  0.584  0.358- 180 2.34 207 2.34 206 2.35 201 2.35
 197  0.584  0.083  0.357- 181 2.34 200 2.34 210 2.35 203 2.35
 198  0.084  0.084  0.357- 182 2.33 209 2.34 204 2.34 199 2.35
 199  0.167  0.166  0.376- 188 2.35 198 2.35 193 2.35 215 2.35
 200  0.667  0.166  0.376- 216 2.33 197 2.34 187 2.35 194 2.35
 201  0.168  0.666  0.377- 191 2.35 196 2.35 190 2.35 217 2.36
 202  0.666  0.667  0.376- 218 2.33 189 2.34 195 2.35 192 2.35
 203  0.417  0.166  0.377- 197 2.35 219 2.35 183 2.35 193 2.35
 204  0.917  0.167  0.376- 220 2.34 198 2.34 184 2.35 194 2.35
 205  0.418  0.664  0.379- 195 2.35 191 2.35 185 2.37 221 2.40
 206  0.917  0.666  0.376- 222 2.35 186 2.35 196 2.35 192 2.35
 207  0.167  0.416  0.375- 223 2.32 188 2.34 196 2.34 183 2.34
 208  0.665  0.417  0.378- 195 2.35 187 2.35 184 2.36 224 2.38
 209  0.167  0.917  0.375- 225 2.32 198 2.34 190 2.34 185 2.34
 210  0.667  0.916  0.376- 197 2.35 186 2.35 226 2.35 189 2.35
 211  0.418  0.417  0.378- 187 2.35 191 2.35 183 2.37 227 2.38
 212  0.918  0.416  0.376- 228 2.33 188 2.34 184 2.35 192 2.35
 213  0.417  0.916  0.376- 229 2.35 189 2.35 193 2.35 185 2.35
 214  0.917  0.916  0.376- 230 2.35 186 2.35 190 2.35 194 2.35
 215  0.167  0.167  0.433- 235 2.34 243 2.34 239 2.34 199 2.35
 216  0.666  0.166  0.432- 244 2.33 200 2.33 236 2.34 240 2.34
 217  0.168  0.666  0.434- 241 2.34 201 2.36 237 2.36 245 2.36
 218  0.666  0.668  0.432- 238 2.33 202 2.33 246 2.34 242 2.34
 219  0.417  0.167  0.433- 243 2.34 232 2.34 240 2.34 203 2.35
 220  0.917  0.166  0.432- 244 2.33 204 2.34 231 2.34 239 2.34
 221  0.419  0.662  0.436- 242 2.34 245 2.36 205 2.40 234 2.41
 222  0.917  0.666  0.433- 233 2.34 241 2.34 246 2.34 206 2.35
 223  0.167  0.415  0.431- 207 2.32 237 2.33 233 2.34 243 2.34
 224  0.665  0.418  0.436- 244 2.36 238 2.37 208 2.38 234 2.39
 225  0.166  0.920  0.431- 245 2.32 209 2.32 231 2.34 235 2.34
 226  0.667  0.917  0.433- 246 2.34 236 2.34 232 2.34 210 2.35
 227  0.420  0.418  0.435- 240 2.34 237 2.35 211 2.38 234 2.39
 228  0.919  0.416  0.432- 238 2.33 212 2.33 233 2.34 239 2.34
 229  0.417  0.916  0.433- 235 2.34 232 2.34 242 2.34 213 2.35
 230  0.917  0.917  0.433- 231 2.34 241 2.34 236 2.34 214 2.35
 231  0.001  1.000  0.451-  40 1.50 225 2.34 220 2.34 230 2.34
 232  0.500  1.000  0.451-  41 1.50 219 2.34 226 2.34 229 2.34
 233  0.002  0.499  0.451-  42 1.50 228 2.34 223 2.34 222 2.34
 234  0.503  0.497  0.460-   5 1.96 224 2.39 227 2.39 221 2.41
 235  0.250  1.000  0.451-  43 1.50 225 2.34 215 2.34 229 2.34
 236  0.751  0.000  0.451-  44 1.50 216 2.34 226 2.34 230 2.34
 237  0.250  0.496  0.451-  45 1.49 223 2.33 227 2.35 217 2.36
 238  0.753  0.502  0.450-  46 1.50 228 2.33 218 2.33 224 2.37
 239  1.000  0.250  0.451-  47 1.51 228 2.34 220 2.34 215 2.34
 240  0.501  0.249  0.452-  48 1.50 227 2.34 216 2.34 219 2.34
 241  0.000  0.750  0.451-  49 1.51 222 2.34 230 2.34 217 2.34
 242  0.501  0.750  0.452-  50 1.50 218 2.34 229 2.34 221 2.34
 243  0.250  0.251  0.451-  51 1.50 223 2.34 215 2.34 219 2.34
 244  0.752  0.247  0.451-  52 1.50 216 2.33 220 2.33 224 2.36
 245  0.247  0.756  0.450-  53 1.50 225 2.32 221 2.36 217 2.36
 246  0.751  0.750  0.451-  54 1.50 218 2.34 226 2.34 222 2.34
 

IMPORTANT INFORMATION: All symmetrisations will be switched off!
NOSYMM: (Re-)initialisation of all symmetry stuff for point group C_1.


----------------------------------------------------------------------------------------

                                     Primitive cell                                     

  volume of cell :    8461.3332

  direct lattice vectors                    reciprocal lattice vectors
    15.332987785  0.000000000  0.000000000     0.065218861 -0.037654127  0.000000000
     7.666493893 13.278756938  0.000000000     0.000000000  0.075308254  0.000000000
     0.000000000  0.000000000 41.557994843     0.000000000  0.000000000  0.024062759

  length of vectors
    15.332987785 15.332987785 41.557994843     0.075308254  0.075308254  0.024062759

  position of ions in fractional coordinates (direct lattice)
     0.492754480  0.410531977  0.570596277
     0.403886328  0.479169218  0.555065794
     0.586194542  0.383481305  0.557137232
     0.409029565  0.513104936  0.522947933
     0.502617446  0.477239236  0.506636538
     0.591388645  0.420107361  0.525370263
     0.676296521  0.325230250  0.575208687
     0.767793083  0.308565076  0.564263884
     0.772691641  0.349995236  0.534313874
     0.687781244  0.401725008  0.515783932
     0.308995399  0.519542689  0.570893539
     0.222569072  0.594596517  0.557081790
     0.227392265  0.630759865  0.526182168
     0.316971488  0.588793430  0.509772069
     0.307422618  0.491482208  0.594909049
     0.150862052  0.626844056  0.569804618
     0.159386688  0.691104014  0.515111155
     0.319999644  0.615950339  0.485841249
     0.489227085  0.382589919  0.594472765
     0.693021822  0.434399781  0.493239049
     0.844157034  0.340707643  0.525743247
     0.669769678  0.297295181  0.598725044
     0.835669428  0.265762990  0.578668436
     0.000386604  0.999838839  0.020601800
     0.500136036  0.999904045  0.020601469
     0.000413513  0.499672010  0.020592308
     0.500305143  0.499783077  0.020588751
     0.250270092  0.999937933  0.020613804
     0.750327909  0.999762254  0.020580455
     0.250309737  0.499819957  0.020585094
     0.750299877  0.499702013  0.020588849
     0.000352699  0.249743328  0.020612011
     0.500332207  0.249798381  0.020581157
     0.000327043  0.749752995  0.020582402
     0.500337557  0.749728743  0.020573578
     0.250302971  0.249683462  0.020610939
     0.750316768  0.249833214  0.020592338
     0.250317716  0.749726876  0.020579457
     0.750341552  0.749812769  0.020568864
     0.004534008  0.998803180  0.486845972
     0.500732661  0.999454829  0.487598438
     0.003669172  0.496463432  0.486720241
     0.247797145  0.998230005  0.487020295
     0.749984617  0.001608205  0.487345545
     0.241683667  0.486268068  0.486317469
     0.761411922  0.510478654  0.485461760
     0.998386646  0.251776223  0.487005924
     0.504646153  0.244564127  0.488013164
     0.998096617  0.750998236  0.487582598
     0.506175021  0.751614521  0.488031140
     0.248415845  0.253895797  0.487082896
     0.756433742  0.233540128  0.486442876
     0.235925376  0.774921774  0.485853549
     0.749929816  0.748371286  0.487211782
     0.000329376  0.999792127  0.056800047
     0.500277817  0.999809734  0.056799746
     0.000332111  0.499760988  0.056790385
     0.500314099  0.499778417  0.056786877
     0.250312602  0.999814289  0.056812230
     0.750322025  0.999773571  0.056778716
     0.250315896  0.499793812  0.056783454
     0.750311567  0.499765051  0.056787177
     0.000318090  0.249776591  0.056809763
     0.500324727  0.249785585  0.056779431
     0.000316551  0.749776310  0.056780479
     0.500326936  0.749769269  0.056771659
     0.250315004  0.249762168  0.056808599
     0.750313902  0.249792026  0.056790377
     0.250316442  0.749766196  0.056777276
     0.750322041  0.749792300  0.056766734
     0.833655819  0.833108052  0.075219789
     0.333655573  0.833100115  0.075204621
     0.833648456  0.333111364  0.075239246
     0.333652031  0.333121778  0.075211804
     0.083657064  0.833101765  0.075217041
     0.583656293  0.833108508  0.075203988
     0.083650746  0.333108038  0.075243422
     0.583646669  0.333119671  0.075227482
     0.833641497  0.083119154  0.075216235
     0.333641949  0.083127931  0.075272404
     0.833640426  0.583124990  0.075201365
     0.333655166  0.583115358  0.075228172
     0.083652321  0.083123931  0.075255767
     0.583653578  0.083120558  0.075216768
     0.083651914  0.583114253  0.075223279
     0.583641572  0.583115731  0.075223499
     0.833655223  0.833108784  0.131699428
     0.333668983  0.833086156  0.131680673
     0.833654471  0.333108035  0.131718310
     0.333663176  0.333120629  0.131687127
     0.083639258  0.833096508  0.131694092
     0.583677090  0.833092306  0.131679960
     0.083615018  0.333159263  0.131723776
     0.583648509  0.333099907  0.131704681
     0.833630597  0.083111614  0.131691193
     0.333693679  0.083104469  0.131753991
     0.833629977  0.583145608  0.131676132
     0.333662273  0.583106125  0.131706457
     0.083626913  0.083101877  0.131736621
     0.583667229  0.083113029  0.131693706
     0.083636075  0.583127325  0.131702125
     0.583649254  0.583119766  0.131702368
     0.666996824  0.666446372  0.150571706
     0.166992688  0.666436608  0.150578289
     0.666987334  0.166442103  0.150583889
     0.166960463  0.166474838  0.150595027
     0.916969601  0.666435343  0.150578100
     0.416983012  0.666453946  0.150583650
     0.916938276  0.166431717  0.150595109
     0.417025282  0.166497238  0.150590050
     0.666977194  0.916443392  0.150566795
     0.167019452  0.916382442  0.150567007
     0.666969184  0.416450449  0.150576960
     0.167012668  0.416457459  0.150574885
     0.916979986  0.916460081  0.150573991
     0.417035366  0.916360252  0.150571610
     0.916923759  0.416529264  0.150582320
     0.416982348  0.416438727  0.150582019
     0.666912771  0.666502146  0.207054023
     0.166913832  0.666490097  0.207059076
     0.666903572  0.166505796  0.207066054
     0.166840877  0.166608216  0.207081695
     0.916925287  0.666498381  0.207059076
     0.416924896  0.666478801  0.207065332
     0.916924843  0.166502784  0.207074716
     0.416964450  0.166514080  0.207067498
     0.666917740  0.916482624  0.207042472
     0.166949515  0.916440451  0.207046322
     0.666916166  0.416489286  0.207054504
     0.166920589  0.416475731  0.207055707
     0.916948599  0.916463044  0.207052338
     0.417010181  0.916404303  0.207048247
     0.916938715  0.416491546  0.207060760
     0.416920210  0.416479496  0.207063407
     0.500279803  0.499793771  0.225880725
     0.000286894  0.499823141  0.225881206
     0.500286339  0.999800664  0.225855218
     0.000320870  0.999766022  0.225860993
     0.750281649  0.499817869  0.225854256
     0.250254794  0.499799042  0.225867972
     0.750288455  0.999772047  0.225843668
     0.250321956  0.999811207  0.225778939
     0.500318627  0.749731322  0.225913691
     0.000284064  0.749798347  0.225892034
     0.500294035  0.249847935  0.225932941
     0.000167071  0.249892367  0.225949063
     0.750268975  0.749823199  0.225866528
     0.250286631  0.749772742  0.225893238
     0.750254458  0.249828355  0.225887944
     0.250348654  0.249823083  0.225897809
     0.500493255  0.499630352  0.282306210
     0.000507458  0.499689845  0.282308616
     0.500513264  0.999625949  0.282269634
     0.000590424  0.999563443  0.282277815
     0.750462221  0.499707166  0.282266987
     0.250444759  0.499655203  0.282285516
     0.750511199  0.999576998  0.282251106
     0.250602046  0.999607122  0.282152689
     0.500567070  0.749503138  0.282355538
     0.000500851  0.749638693  0.282323535
     0.500538770  0.249743257  0.282382488
     0.000225332  0.249850194  0.282402942
     0.750461946  0.749692915  0.282286959
     0.250518028  0.749579953  0.282324497
     0.750410953  0.249707109  0.282316557
     0.250663530  0.249703343  0.282328588
     0.333911354  0.333138111  0.301228922
     0.833405059  0.333254086  0.301238066
     0.333805944  0.833063671  0.301059280
     0.833840171  0.832952968  0.301133634
     0.583872308  0.333105728  0.301240713
     0.083986248  0.332956618  0.301087193
     0.583828924  0.832981585  0.301119918
     0.083885719  0.832911548  0.301156975
     0.333845639  0.582839948  0.301129784
     0.833818526  0.583026712  0.301096818
     0.333845099  0.082899326  0.301046045
     0.833882101  0.082883511  0.301022704
     0.583983990  0.582734516  0.301185850
     0.083862447  0.582975503  0.301169969
     0.583900505  0.082907610  0.301083102
     0.084068527  0.082895561  0.300980354
     0.335248053  0.333495892  0.357920627
     0.831628516  0.334052243  0.357969649
     0.335428745  0.830626159  0.357942329
     0.833801153  0.833126331  0.357595249
     0.583433414  0.333908176  0.357950756
     0.084110428  0.332120810  0.357020091
     0.583413940  0.833848599  0.357421078
     0.083981350  0.832328762  0.357583611
     0.334551494  0.582698802  0.358084232
     0.833766564  0.583351406  0.357420338
     0.333955942  0.082872229  0.357556534
     0.833741155  0.082926936  0.357425240
     0.583106447  0.582711000  0.357983920
     0.084061858  0.583533755  0.357557838
     0.583505260  0.082850001  0.357420122
     0.083570936  0.084191068  0.357019828
     0.167424431  0.166235126  0.376385857
     0.666606913  0.166357122  0.375880129
     0.167850420  0.665949945  0.377102182
     0.666482760  0.667137231  0.375675794
     0.417112571  0.166438755  0.376510427
     0.917214968  0.166506225  0.375921584
     0.418240463  0.664073904  0.378702258
     0.917336431  0.666418224  0.376354641
     0.167088346  0.415788519  0.375126409
     0.665251863  0.417424232  0.378256324
     0.166974742  0.917404519  0.374849266
     0.667215171  0.916491616  0.376477668
     0.418141436  0.417182790  0.378110253
     0.917625144  0.415968388  0.375528840
     0.416994736  0.916196311  0.376478311
     0.917256463  0.916371298  0.376389522
     0.167140753  0.166663301  0.432899300
     0.666447868  0.166117038  0.432046769
     0.167996512  0.665825947  0.433841827
     0.666350866  0.668468873  0.431776533
     0.417316037  0.166518046  0.433009744
     0.917473398  0.166120023  0.432189967
     0.419347645  0.662137960  0.436367187
     0.917400249  0.666323829  0.432807361
     0.167126869  0.415311944  0.430979578
     0.665451974  0.417611303  0.435637831
     0.165832588  0.919751762  0.430626227
     0.667254605  0.916734701  0.432964268
     0.419681568  0.417570296  0.435345010
     0.919314339  0.415942110  0.431621940
     0.417388758  0.916082849  0.432955797
     0.917332260  0.916503765  0.432847264
     0.001335128  0.999773445  0.450661376
     0.500495335  0.999735388  0.451398474
     0.002027796  0.499028716  0.450540169
     0.502864850  0.496548457  0.460079757
     0.250168663  0.999716120  0.450843734
     0.750516770  0.000355232  0.451148210
     0.249796407  0.496330749  0.450837195
     0.753492317  0.502359869  0.449676187
     0.999865671  0.250181046  0.450790824
     0.501232876  0.248933108  0.451849922
     0.000294316  0.749937308  0.451361945
     0.501449259  0.749766284  0.451896408
     0.250138905  0.250569594  0.450901917
     0.751641753  0.246530952  0.450701358
     0.247468005  0.756353728  0.450248468
     0.750518841  0.749812909  0.451022569

  ion indices of the primitive-cell ions
   primitive index   ion index
                 1           1
                 2           2
                 3           3
                 4           4
                 5           5
                 6           6
                 7           7
                 8           8
                 9           9
                10          10
                11          11
                12          12
                13          13
                14          14
                15          15
                16          16
                17          17
                18          18
                19          19
                20          20
                21          21
                22          22
                23          23
                24          24
                25          25
                26          26
                27          27
                28          28
                29          29
                30          30
                31          31
                32          32
                33          33
                34          34
                35          35
                36          36
                37          37
                38          38
                39          39
                40          40
                41          41
                42          42
                43          43
                44          44
                45          45
                46          46
                47          47
                48          48
                49          49
                50          50
                51          51
                52          52
                53          53
                54          54
                55          55
                56          56
                57          57
                58          58
                59          59
                60          60
                61          61
                62          62
                63          63
                64          64
                65          65
                66          66
                67          67
                68          68
                69          69
                70          70
                71          71
                72          72
                73          73
                74          74
                75          75
                76          76
                77          77
                78          78
                79          79
                80          80
                81          81
                82          82
                83          83
                84          84
                85          85
                86          86
                87          87
                88          88
                89          89
                90          90
                91          91
                92          92
                93          93
                94          94
                95          95
                96          96
                97          97
                98          98
                99          99
               100         100
               101         101
               102         102
               103         103
               104         104
               105         105
               106         106
               107         107
               108         108
               109         109
               110         110
               111         111
               112         112
               113         113
               114         114
               115         115
               116         116
               117         117
               118         118
               119         119
               120         120
               121         121
               122         122
               123         123
               124         124
               125         125
               126         126
               127         127
               128         128
               129         129
               130         130
               131         131
               132         132
               133         133
               134         134
               135         135
               136         136
               137         137
               138         138
               139         139
               140         140
               141         141
               142         142
               143         143
               144         144
               145         145
               146         146
               147         147
               148         148
               149         149
               150         150
               151         151
               152         152
               153         153
               154         154
               155         155
               156         156
               157         157
               158         158
               159         159
               160         160
               161         161
               162         162
               163         163
               164         164
               165         165
               166         166
               167         167
               168         168
               169         169
               170         170
               171         171
               172         172
               173         173
               174         174
               175         175
               176         176
               177         177
               178         178
               179         179
               180         180
               181         181
               182         182
               183         183
               184         184
               185         185
               186         186
               187         187
               188         188
               189         189
               190         190
               191         191
               192         192
               193         193
               194         194
               195         195
               196         196
               197         197
               198         198
               199         199
               200         200
               201         201
               202         202
               203         203
               204         204
               205         205
               206         206
               207         207
               208         208
               209         209
               210         210
               211         211
               212         212
               213         213
               214         214
               215         215
               216         216
               217         217
               218         218
               219         219
               220         220
               221         221
               222         222
               223         223
               224         224
               225         225
               226         226
               227         227
               228         228
               229         229
               230         230
               231         231
               232         232
               233         233
               234         234
               235         235
               236         236
               237         237
               238         238
               239         239
               240         240
               241         241
               242         242
               243         243
               244         244
               245         245
               246         246

----------------------------------------------------------------------------------------

 
 
 KPOINTS: auto                                    

Automatic generation of k-mesh.
 Grid dimensions read from file:
 generate k-points for:    3    3    1

 Generating k-lattice:

  Cartesian coordinates                     Fractional coordinates (reciprocal lattice)
     0.021739620 -0.012551376  0.000000000     0.333333333  0.000000000  0.000000000
     0.000000000  0.025102751  0.000000000     0.000000000  0.333333333  0.000000000
     0.000000000  0.000000000  0.024062759     0.000000000  0.000000000  1.000000000

  Length of vectors
     0.025102751  0.025102751  0.024062759

  Shift w.r.t. Gamma in fractional coordinates (k-lattice)
     0.000000000  0.000000000  0.000000000

 
 Subroutine IBZKPT returns following result:
 ===========================================
 
 Found      5 irreducible k-points:
 
 Following reciprocal coordinates:
            Coordinates               Weight
  0.000000  0.000000  0.000000      1.000000
  0.333333  0.000000  0.000000      2.000000
  0.333333  0.333333  0.000000      2.000000
  0.000000  0.333333  0.000000      2.000000
 -0.333333  0.333333  0.000000      2.000000
 
 Following cartesian coordinates:
            Coordinates               Weight
  0.000000  0.000000  0.000000      1.000000
  0.021740 -0.012551  0.000000      2.000000
  0.021740  0.012551  0.000000      2.000000
  0.000000  0.025103  0.000000      2.000000
 -0.021740  0.037654  0.000000      2.000000
 


--------------------------------------------------------------------------------------------------------




 Dimension of arrays:
   k-points           NKPTS =      5   k-points in BZ     NKDIM =      5   number of bands    NBANDS=    640
   number of dos      NEDOS =    301   number of ions     NIONS =    246
   non local maximal  LDIM  =      6   non local SUM 2l+1 LMDIM =     18
   total plane-waves  NPLWV = ******
   max r-space proj   IRMAX =      1   max aug-charges    IRDMAX=  26929
   dimension x,y,z NGX =   120 NGY =  120 NGZ =  320
   dimension x,y,z NGXF=   240 NGYF=  240 NGZF=  640
   support grid    NGXF=   240 NGYF=  240 NGZF=  640
   ions per type =              14   9  31 192
   NGX,Y,Z   is equivalent  to a cutoff of  13.01, 13.01, 12.80 a.u.
   NGXF,Y,Z  is equivalent  to a cutoff of  26.02, 26.02, 25.60 a.u.

 SYSTEM =  Si_surface_6layer                       
 POSCAR =  4x4_si_surface_from540eV_1x1x1conv      

 Startparameter for this run:
   NWRITE =      2    write-flag & timer
   PREC   = accura    normal or accurate (medium, high low for compatibility)
   ISTART =      1    job   : 0-new  1-cont  2-samecut
   ICHARG =      0    charge: 1-file 2-atom 10-const
   ISPIN  =      1    spin polarized calculation?
   LNONCOLLINEAR =      F non collinear calculations
   LSORBIT =      F    spin-orbit coupling
   INIWAV =      1    electr: 0-lowe 1-rand  2-diag
   LASPH  =      F    aspherical Exc in radial PAW
 Electronic Relaxation 1
   ENCUT  =  540.0 eV  39.69 Ry    6.30 a.u.  29.05 29.05 78.74*2*pi/ulx,y,z
   ENINI  =  540.0     initial cutoff
   ENAUG  =  644.9 eV  augmentation charge cutoff
   NELM   =     60;   NELMIN=  5; NELMDL=  0     # of ELM steps 
   EDIFF  = 0.1E-04   stopping-criterion for ELM
   LREAL  =      F    real-space projection
   NLSPLINE    = F    spline interpolate recip. space projectors
   LCOMPAT=      F    compatible to vasp.4.4
   GGA_COMPAT  = T    GGA compatible to vasp.4.4-vasp.4.6
   LMAXPAW     = -100 max onsite density
   LMAXMIX     =    2 max onsite mixed and CHGCAR
   VOSKOWN=      0    Vosko Wilk Nusair interpolation
   ROPT   =    0.00000   0.00000   0.00000   0.00000
 Ionic relaxation
   EDIFFG = -.9E-02   stopping-criterion for IOM
   NSW    =    150    number of steps for IOM
   NBLOCK =      1;   KBLOCK =    150    inner block; outer block 
   IBRION =      2    ionic relax: 0-MD 1-quasi-New 2-CG
   NFREE  =      1    steps in history (QN), initial steepest desc. (CG)
   ISIF   =      2    stress and relaxation
   IWAVPR =     11    prediction:  0-non 1-charg 2-wave 3-comb
   ISYM   =      0    0-nonsym 1-usesym 2-fastsym
   LCORR  =      T    Harris-Foulkes like correction to forces

   POTIM  = 0.2500    time-step for ionic-motion
   TEIN   =    0.0    initial temperature
   TEBEG  =    0.0;   TEEND  =   0.0 temperature during run
   SMASS  =  -3.00    Nose mass-parameter (am)
   estimated Nose-frequenzy (Omega)   =  0.10E-29 period in steps = 0.25E+47 mass=  -0.537E-26a.u.
   SCALEE = 1.0000    scale energy and forces
   NPACO  =    256;   APACO  = 10.0  distance and # of slots for P.C.
   PSTRESS=    0.0 pullay stress

  Mass of Ions in am
   POMASS =  12.01  1.00  1.00 28.09
  Ionic Valenz
   ZVAL   =   4.00  1.00  1.00  4.00
  Atomic Wigner-Seitz radii
   RWIGS  =  -1.00 -1.00 -1.00 -1.00
  virtual crystal weights 
   VCA    =   1.00  1.00  1.00  1.00
   NELECT =     864.0000    total number of electrons
   NUPDOWN=      -1.0000    fix difference up-down

 DOS related values:
   EMIN   =  10.00;   EMAX   =-10.00  energy-range for DOS
   EFERMI =   0.00
   ISMEAR =     0;   SIGMA  =   0.01  broadening in eV -4-tet -1-fermi 0-gaus

 Electronic relaxation 2 (details)
   IALGO  =     38    algorithm
   LDIAG  =      T    sub-space diagonalisation (order eigenvalues)
   LSUBROT=      F    optimize rotation matrix (better conditioning)
   TURBO    =      0    0=normal 1=particle mesh
   IRESTART =      0    0=no restart 2=restart with 2 vectors
   NREBOOT  =      0    no. of reboots
   NMIN     =      0    reboot dimension
   EREF     =   0.00    reference energy to select bands
   IMIX   =      4    mixing-type and parameters
     AMIX     =   0.40;   BMIX     =  1.00
     AMIX_MAG =   1.60;   BMIX_MAG =  1.00
     AMIN     =   0.10
     WC   =   100.;   INIMIX=   1;  MIXPRE=   1;  MAXMIX= -45

 Intra band minimization:
   WEIMIN = 0.0010     energy-eigenvalue tresh-hold
   EBREAK =  0.39E-08  absolut break condition
   DEPER  =   0.30     relativ break condition  

   TIME   =   0.40     timestep for ELM

  volume/ion in A,a.u.               =      34.40       232.11
  Fermi-wavevector in a.u.,A,eV,Ry     =   0.765185  1.445990  7.966322  0.585508
  Thomas-Fermi vector in A             =   1.865250
 
 Write flags
   LWAVE        =      T    write WAVECAR
   LDOWNSAMPLE  =      F    k-point downsampling of WAVECAR
   LCHARG       =      T    write CHGCAR
   LVTOT        =      F    write LOCPOT, total local potential
   LVHAR        =      F    write LOCPOT, Hartree potential only
   LELF         =      F    write electronic localiz. function (ELF)
   LORBIT       =      0    0 simple, 1 ext, 2 COOP (PROOUT), +10 PAW based schemes


 Dipole corrections
   LMONO  =      F    monopole corrections only (constant potential shift)
   LDIPOL =      F    correct potential (dipole corrections)
   IDIPOL =      3    1-x, 2-y, 3-z, 4-all directions 
   EPSILON=  1.0000000 bulk dielectric constant

 Exchange correlation treatment:
   GGA     =    --    GGA type
   LEXCH   =     8    internal setting for exchange type
   LIBXC   =     F    Libxc                    
   VOSKOWN =     0    Vosko Wilk Nusair interpolation
   LHFCALC =     F    Hartree Fock is set to
   LHFONE  =     F    Hartree Fock one center treatment
   AEXX    =    0.0000 exact exchange contribution

 Linear response parameters
   LEPSILON=     F    determine dielectric tensor
   LRPA    =     F    only Hartree local field effects (RPA)
   LNABLA  =     F    use nabla operator in PAW spheres
   LVEL    =     F    velocity operator in full k-point grid
   CSHIFT  =0.1000    complex shift for real part using Kramers Kronig
   OMEGAMAX=  -1.0    maximum frequency
   DEG_THRESHOLD= 0.2000000E-02 threshold for treating states as degnerate
   RTIME   =   -0.100 relaxation time in fs
  (WPLASMAI=    0.000 imaginary part of plasma frequency in eV, 0.658/RTIME)
   DFIELD  = 0.0000000 0.0000000 0.0000000 field for delta impulse in time
 
  Optional k-point grid parameters
   LKPOINTS_OPT  =     F    use optional k-point grid
   KPOINTS_OPT_MODE=     1    mode for optional k-point grid
 
 Orbital magnetization related:
   ORBITALMAG=     F  switch on orbital magnetization
   LCHIMAG   =     F  perturbation theory with respect to B field
   DQ        =  0.001000  dq finite difference perturbation B field
   LLRAUG    =     F  two centre corrections for induced B field



--------------------------------------------------------------------------------------------------------


 conjugate gradient relaxation of ions
   using selective dynamics as specified on POSCAR
 charge density and potential will be updated during run
 non-spin polarized calculation
 Variant of blocked Davidson
 Davidson routine will perform the subspace rotation
 perform sub-space diagonalisation
    after iterative eigenvector-optimisation
 modified Broyden-mixing scheme, WC =      100.0
 initial mixing is a Kerker type mixing with AMIX =  0.4000 and BMIX =      1.0000
 Hartree-type preconditioning will be used
 using additional bands          208
 reciprocal scheme for non local part
 use partial core corrections
 calculate Harris-corrections to forces 
   (improved forces if not selfconsistent)
 use gradient corrections 
 use of overlap-Matrix (Vanderbilt PP)
 Gauss-broadening in eV      SIGMA  =   0.01


--------------------------------------------------------------------------------------------------------


  energy-cutoff  :      540.00
  volume of cell :     8461.33
      direct lattice vectors                 reciprocal lattice vectors
    15.332987785  0.000000000  0.000000000     0.065218861 -0.037654127  0.000000000
     7.666493893 13.278756938  0.000000000     0.000000000  0.075308254  0.000000000
     0.000000000  0.000000000 41.557994843     0.000000000  0.000000000  0.024062759

  length of vectors
    15.332987785 15.332987785 41.557994843     0.075308254  0.075308254  0.024062759


 
 old parameters found on file WAVECAR:
  energy-cutoff  :      540.00
  volume of cell :     8461.33
      direct lattice vectors                 reciprocal lattice vectors
    15.332987785  0.000000000  0.000000000     0.065218861 -0.037654127  0.000000000
     7.666493893 13.278756938  0.000000000     0.000000000  0.075308254  0.000000000
     0.000000000  0.000000000 41.557994843     0.000000000  0.000000000  0.024062759

  length of vectors

 
 k-points in units of 2pi/SCALE and weight: auto                                    
   0.00000000  0.00000000  0.00000000       0.111
   0.02173962 -0.01255138  0.00000000       0.222
   0.02173962  0.01255138  0.00000000       0.222
   0.00000000  0.02510275  0.00000000       0.222
  -0.02173962  0.03765413  0.00000000       0.222
 
 k-points in reciprocal lattice and weights: auto                                    
   0.00000000  0.00000000  0.00000000       0.111
   0.33333333  0.00000000  0.00000000       0.222
   0.33333333  0.33333333  0.00000000       0.222
   0.00000000  0.33333333  0.00000000       0.222
  -0.33333333  0.33333333  0.00000000       0.222
 
 position of ions in fractional coordinates (direct lattice) 
   0.49275448  0.41053198  0.57059628
   0.40388633  0.47916922  0.55506579
   0.58619454  0.38348131  0.55713723
   0.40902957  0.51310494  0.52294793
   0.50261745  0.47723924  0.50663654
   0.59138865  0.42010736  0.52537026
   0.67629652  0.32523025  0.57520869
   0.76779308  0.30856508  0.56426388
   0.77269164  0.34999524  0.53431387
   0.68778124  0.40172501  0.51578393
   0.30899540  0.51954269  0.57089354
   0.22256907  0.59459652  0.55708179
   0.22739227  0.63075987  0.52618217
   0.31697149  0.58879343  0.50977207
   0.30742262  0.49148221  0.59490905
   0.15086205  0.62684406  0.56980462
   0.15938669  0.69110401  0.51511115
   0.31999964  0.61595034  0.48584125
   0.48922708  0.38258992  0.59447276
   0.69302182  0.43439978  0.49323905
   0.84415703  0.34070764  0.52574325
   0.66976968  0.29729518  0.59872504
   0.83566943  0.26576299  0.57866844
   0.00038660  0.99983884  0.02060180
   0.50013604  0.99990405  0.02060147
   0.00041351  0.49967201  0.02059231
   0.50030514  0.49978308  0.02058875
   0.25027009  0.99993793  0.02061380
   0.75032791  0.99976225  0.02058046
   0.25030974  0.49981996  0.02058509
   0.75029988  0.49970201  0.02058885
   0.00035270  0.24974333  0.02061201
   0.50033221  0.24979838  0.02058116
   0.00032704  0.74975299  0.02058240
   0.50033756  0.74972874  0.02057358
   0.25030297  0.24968346  0.02061094
   0.75031677  0.24983321  0.02059234
   0.25031772  0.74972688  0.02057946
   0.75034155  0.74981277  0.02056886
   0.00453401  0.99880318  0.48684597
   0.50073266  0.99945483  0.48759844
   0.00366917  0.49646343  0.48672024
   0.24779714  0.99823000  0.48702029
   0.74998462  0.00160821  0.48734555
   0.24168367  0.48626807  0.48631747
   0.76141192  0.51047865  0.48546176
   0.99838665  0.25177622  0.48700592
   0.50464615  0.24456413  0.48801316
   0.99809662  0.75099824  0.48758260
   0.50617502  0.75161452  0.48803114
   0.24841585  0.25389580  0.48708290
   0.75643374  0.23354013  0.48644288
   0.23592538  0.77492177  0.48585355
   0.74992982  0.74837129  0.48721178
   0.00032938  0.99979213  0.05680005
   0.50027782  0.99980973  0.05679975
   0.00033211  0.49976099  0.05679038
   0.50031410  0.49977842  0.05678688
   0.25031260  0.99981429  0.05681223
   0.75032202  0.99977357  0.05677872
   0.25031590  0.49979381  0.05678345
   0.75031157  0.49976505  0.05678718
   0.00031809  0.24977659  0.05680976
   0.50032473  0.24978559  0.05677943
   0.00031655  0.74977631  0.05678048
   0.50032694  0.74976927  0.05677166
   0.25031500  0.24976217  0.05680860
   0.75031390  0.24979203  0.05679038
   0.25031644  0.74976620  0.05677728
   0.75032204  0.74979230  0.05676673
   0.83365582  0.83310805  0.07521979
   0.33365557  0.83310011  0.07520462
   0.83364846  0.33311136  0.07523925
   0.33365203  0.33312178  0.07521180
   0.08365706  0.83310177  0.07521704
   0.58365629  0.83310851  0.07520399
   0.08365075  0.33310804  0.07524342
   0.58364667  0.33311967  0.07522748
   0.83364150  0.08311915  0.07521624
   0.33364195  0.08312793  0.07527240
   0.83364043  0.58312499  0.07520136
   0.33365517  0.58311536  0.07522817
   0.08365232  0.08312393  0.07525577
   0.58365358  0.08312056  0.07521677
   0.08365191  0.58311425  0.07522328
   0.58364157  0.58311573  0.07522350
   0.83365522  0.83310878  0.13169943
   0.33366898  0.83308616  0.13168067
   0.83365447  0.33310804  0.13171831
   0.33366318  0.33312063  0.13168713
   0.08363926  0.83309651  0.13169409
   0.58367709  0.83309231  0.13167996
   0.08361502  0.33315926  0.13172378
   0.58364851  0.33309991  0.13170468
   0.83363060  0.08311161  0.13169119
   0.33369368  0.08310447  0.13175399
   0.83362998  0.58314561  0.13167613
   0.33366227  0.58310612  0.13170646
   0.08362691  0.08310188  0.13173662
   0.58366723  0.08311303  0.13169371
   0.08363607  0.58312732  0.13170213
   0.58364925  0.58311977  0.13170237
   0.66699682  0.66644637  0.15057171
   0.16699269  0.66643661  0.15057829
   0.66698733  0.16644210  0.15058389
   0.16696046  0.16647484  0.15059503
   0.91696960  0.66643534  0.15057810
   0.41698301  0.66645395  0.15058365
   0.91693828  0.16643172  0.15059511
   0.41702528  0.16649724  0.15059005
   0.66697719  0.91644339  0.15056680
   0.16701945  0.91638244  0.15056701
   0.66696918  0.41645045  0.15057696
   0.16701267  0.41645746  0.15057489
   0.91697999  0.91646008  0.15057399
   0.41703537  0.91636025  0.15057161
   0.91692376  0.41652926  0.15058232
   0.41698235  0.41643873  0.15058202
   0.66691277  0.66650215  0.20705402
   0.16691383  0.66649010  0.20705908
   0.66690357  0.16650580  0.20706605
   0.16684088  0.16660822  0.20708169
   0.91692529  0.66649838  0.20705908
   0.41692490  0.66647880  0.20706533
   0.91692484  0.16650278  0.20707472
   0.41696445  0.16651408  0.20706750
   0.66691774  0.91648262  0.20704247
   0.16694952  0.91644045  0.20704632
   0.66691617  0.41648929  0.20705450
   0.16692059  0.41647573  0.20705571
   0.91694860  0.91646304  0.20705234
   0.41701018  0.91640430  0.20704825
   0.91693871  0.41649155  0.20706076
   0.41692021  0.41647950  0.20706341
   0.50027980  0.49979377  0.22588072
   0.00028689  0.49982314  0.22588121
   0.50028634  0.99980066  0.22585522
   0.00032087  0.99976602  0.22586099
   0.75028165  0.49981787  0.22585426
   0.25025479  0.49979904  0.22586797
   0.75028845  0.99977205  0.22584367
   0.25032196  0.99981121  0.22577894
   0.50031863  0.74973132  0.22591369
   0.00028406  0.74979835  0.22589203
   0.50029404  0.24984793  0.22593294
   0.00016707  0.24989237  0.22594906
   0.75026897  0.74982320  0.22586653
   0.25028663  0.74977274  0.22589324
   0.75025446  0.24982835  0.22588794
   0.25034865  0.24982308  0.22589781
   0.50049325  0.49963035  0.28230621
   0.00050746  0.49968985  0.28230862
   0.50051326  0.99962595  0.28226963
   0.00059042  0.99956344  0.28227782
   0.75046222  0.49970717  0.28226699
   0.25044476  0.49965520  0.28228552
   0.75051120  0.99957700  0.28225111
   0.25060205  0.99960712  0.28215269
   0.50056707  0.74950314  0.28235554
   0.00050085  0.74963869  0.28232353
   0.50053877  0.24974326  0.28238249
   0.00022533  0.24985019  0.28240294
   0.75046195  0.74969292  0.28228696
   0.25051803  0.74957995  0.28232450
   0.75041095  0.24970711  0.28231656
   0.25066353  0.24970334  0.28232859
   0.33391135  0.33313811  0.30122892
   0.83340506  0.33325409  0.30123807
   0.33380594  0.83306367  0.30105928
   0.83384017  0.83295297  0.30113363
   0.58387231  0.33310573  0.30124071
   0.08398625  0.33295662  0.30108719
   0.58382892  0.83298158  0.30111992
   0.08388572  0.83291155  0.30115697
   0.33384564  0.58283995  0.30112978
   0.83381853  0.58302671  0.30109682
   0.33384510  0.08289933  0.30104605
   0.83388210  0.08288351  0.30102270
   0.58398399  0.58273452  0.30118585
   0.08386245  0.58297550  0.30116997
   0.58390051  0.08290761  0.30108310
   0.08406853  0.08289556  0.30098035
   0.33524805  0.33349589  0.35792063
   0.83162852  0.33405224  0.35796965
   0.33542874  0.83062616  0.35794233
   0.83380115  0.83312633  0.35759525
   0.58343341  0.33390818  0.35795076
   0.08411043  0.33212081  0.35702009
   0.58341394  0.83384860  0.35742108
   0.08398135  0.83232876  0.35758361
   0.33455149  0.58269880  0.35808423
   0.83376656  0.58335141  0.35742034
   0.33395594  0.08287223  0.35755653
   0.83374116  0.08292694  0.35742524
   0.58310645  0.58271100  0.35798392
   0.08406186  0.58353375  0.35755784
   0.58350526  0.08285000  0.35742012
   0.08357094  0.08419107  0.35701983
   0.16742443  0.16623513  0.37638586
   0.66660691  0.16635712  0.37588013
   0.16785042  0.66594995  0.37710218
   0.66648276  0.66713723  0.37567579
   0.41711257  0.16643876  0.37651043
   0.91721497  0.16650623  0.37592158
   0.41824046  0.66407390  0.37870226
   0.91733643  0.66641822  0.37635464
   0.16708835  0.41578852  0.37512641
   0.66525186  0.41742423  0.37825632
   0.16697474  0.91740452  0.37484927
   0.66721517  0.91649162  0.37647767
   0.41814144  0.41718279  0.37811025
   0.91762514  0.41596839  0.37552884
   0.41699474  0.91619631  0.37647831
   0.91725646  0.91637130  0.37638952
   0.16714075  0.16666330  0.43289930
   0.66644787  0.16611704  0.43204677
   0.16799651  0.66582595  0.43384183
   0.66635087  0.66846887  0.43177653
   0.41731604  0.16651805  0.43300974
   0.91747340  0.16612002  0.43218997
   0.41934764  0.66213796  0.43636719
   0.91740025  0.66632383  0.43280736
   0.16712687  0.41531194  0.43097958
   0.66545197  0.41761130  0.43563783
   0.16583259  0.91975176  0.43062623
   0.66725460  0.91673470  0.43296427
   0.41968157  0.41757030  0.43534501
   0.91931434  0.41594211  0.43162194
   0.41738876  0.91608285  0.43295580
   0.91733226  0.91650376  0.43284726
   0.00133513  0.99977344  0.45066138
   0.50049534  0.99973539  0.45139847
   0.00202780  0.49902872  0.45054017
   0.50286485  0.49654846  0.46007976
   0.25016866  0.99971612  0.45084373
   0.75051677  0.00035523  0.45114821
   0.24979641  0.49633075  0.45083719
   0.75349232  0.50235987  0.44967619
   0.99986567  0.25018105  0.45079082
   0.50123288  0.24893311  0.45184992
   0.00029432  0.74993731  0.45136195
   0.50144926  0.74976628  0.45189641
   0.25013891  0.25056959  0.45090192
   0.75164175  0.24653095  0.45070136
   0.24746801  0.75635373  0.45024847
   0.75051884  0.74981291  0.45102257
 
 position of ions in cartesian coordinates  (Angst):
  10.70273932  5.45135434 23.71283715
   9.86633202  6.36277158 23.06742141
  11.92807083  5.09215504 23.15350620
  10.20536119  6.81339573 21.73266749
  11.36537885  6.33714382 21.05479865
  12.28850539  5.57850354 21.83333466
  12.86302202  4.31865343 23.90451967
  14.13817423  4.09736064 23.44967559
  14.53090782  4.64750166 22.20501321
  13.62556374  5.33440874 21.43494600
   8.72089353  6.89888109 23.72519076
   7.97111942  7.89550263 23.15120216
   8.32231948  8.37570693 21.86707582
   9.37410119  7.81844485 21.18510501
   8.48165259  6.52627278 24.72322719
   7.11886212  8.32370986 23.67993736
   7.74221883  9.17700222 21.40698671
   9.62873014  8.17905484 20.19058814
  10.43443619  5.08031854 24.70509610
  13.95641839  5.76828911 20.49802584
  15.55548256  4.52417398 21.84883514
  12.54878198  3.94771044 24.88181228
  14.85077947  3.52900214 24.04829988
   7.67118614 13.27661692  0.85616951
  15.33433799 13.27748278  0.85615576
   3.83707280  6.63502317  0.85577504
  11.50275656  6.63649801  0.85562721
  11.50340632 13.27793277  0.85666835
  19.16943988 13.27559997  0.85528246
   7.66986278  6.63698772  0.85547521
  15.33530128  6.63542157  0.85563129
   1.92006363  3.31628095  0.85659385
   9.58666538  3.31701198  0.85531164
   5.75299130  9.95578778  0.85536334
  13.41946048  9.95546574  0.85499666
   5.75208913  3.31548600  0.85654929
  13.41994266  3.31747453  0.85577627
   9.58589500  9.95544095  0.85524097
  17.25341286  9.95658151  0.85480074
   7.72683837 13.26286466 20.23234241
  15.34004212 13.27151775 20.26361336
   3.86239323  6.59241724 20.22711728
  11.45239483 13.25525360 20.23958691
  11.51183427  0.02135497 20.25310366
   7.43370389  6.45703548 20.21037889
  15.58830119  6.77852197 20.17481731
  17.23849112  3.34327526 20.23898969
   9.61268268  3.24750760 20.28084854
  21.06132662  9.97232303 20.26295508
  13.52342355  9.98050653 20.28159561
   5.75544770  3.37142058 20.24218847
  13.38882329  3.10112260 20.21559053
   9.55837396 10.28999788 20.19109927
  17.23604860  9.93744041 20.24754474
   7.66995056 13.27599664  2.36049606
  15.33578888 13.27623045  2.36048356
   3.83650682  6.63620468  2.36009452
  11.50285815  6.63643612  2.35994874
  11.50311021 13.27629093  2.36100235
  19.16943641 13.27575024  2.35960957
   7.66975678  6.63664054  2.35980649
  15.33596380  6.63625864  2.35996123
   1.91978798  3.31672265  2.36089985
   9.58645259  3.31684207  2.35963929
   5.75300918  9.95609738  2.35968287
  13.41960831  9.95600388  2.35931630
   5.75287704  3.31653112  2.36085148
  13.41958294  3.31692760  2.36009419
   9.58617691  9.95596307  2.35954973
  17.25295679  9.95630971  2.35911165
  19.16945229 11.06263933  3.12598360
  11.50289377 11.06253393  3.12535326
  15.33611783  4.42330484  3.12679218
   7.66975859  4.42344313  3.12565176
   7.66968234 11.06255585  3.12586938
  15.33621610 11.06264538  3.12532696
   3.83638661  4.42326067  3.12696574
  11.50290718  4.42341514  3.12630333
  13.41944737  1.10371904  3.12583592
   5.75302771  1.10383559  3.12817016
  17.25272265  7.74317501  3.12521792
   9.58638092  7.74304710  3.12633197
   1.91990913  1.10378248  3.12747877
   9.58639643  1.10373769  3.12585805
   5.75307563  7.74303243  3.12612862
  13.41942229  7.74305206  3.12613777
  19.16944876 11.06264905  5.47316416
  11.50299237 11.06234857  5.47238473
  15.33618454  4.42326063  5.47394886
   7.66992067  4.42342787  5.47265296
   7.66936901 11.06248604  5.47294241
  15.33641077 11.06243024  5.47235509
   3.83623151  4.42394088  5.47417599
  11.50278386  4.42315270  5.47338247
  13.41922244  1.10361892  5.47282193
   5.75364102  1.10352404  5.47543167
[...]
     11.51213      0.02264     20.25225         0.000041      0.000158     -0.001490
      7.43762      6.45776     20.20922         0.000819      0.001887     -0.002386
     15.59046      6.78135     20.17396        -0.002928     -0.000709     -0.001828
     17.23954      3.34271     20.24071         0.000043     -0.000529     -0.000309
      9.61242      3.24588     20.28157        -0.000067     -0.000473     -0.000772
     21.05932      9.97292     20.26192         0.000713      0.000373     -0.000401
     13.52216      9.97877     20.28487        -0.000997     -0.000310     -0.001779
      5.75293      3.37088     20.24110         0.001156      0.000657      0.000884
     13.38969      3.09952     20.21460        -0.000141      0.001719     -0.001625
      9.55770     10.28898     20.19117         0.001384      0.001128     -0.000270
     17.23444      9.93932     20.24943         0.000713      0.000393     -0.001595
      7.66996     13.27601      2.36055         0.000137      0.000127     -0.000514
     15.33578     13.27623      2.36056        -0.000016      0.000107     -0.000542
      3.83654      6.63624      2.36014         0.000026      0.000066     -0.000518
     11.50288      6.63649      2.36002         0.000043      0.000004     -0.000547
     11.50307     13.27627      2.36107        -0.000021     -0.000020     -0.000555
     19.16942     13.27578      2.35968        -0.000039      0.000053     -0.000536
      7.66973      6.63666      2.35986        -0.000056      0.000055     -0.000536
     15.33597      6.63629      2.36002        -0.000050      0.000056     -0.000553
      1.91979      3.31673      2.36097        -0.000031      0.000009     -0.000539
      9.58644      3.31684      2.35971        -0.000064      0.000020     -0.000540
      5.75299      9.95612      2.35978        -0.000032     -0.000000     -0.000557
     13.41958      9.95600      2.35940        -0.000017      0.000017     -0.000515
      5.75286      3.31654      2.36091        -0.000010      0.000029     -0.000554
     13.41958      3.31696      2.36015         0.000115      0.000111     -0.000525
      9.58619      9.95598      2.35964         0.000007      0.000033     -0.000539
     17.25295      9.95635      2.35918         0.000075      0.000060     -0.000536
     19.16945     11.06270      3.12602         0.000027      0.000018      0.000594
     11.50290     11.06255      3.12544         0.000048      0.000111      0.000416
     15.33612      4.42335      3.12680        -0.000037      0.000093      0.000556
      7.66976      4.42347      3.12568         0.000099      0.000111      0.000395
      7.66968     11.06259      3.12593         0.000011      0.000085      0.000386
     15.33619     11.06266      3.12540        -0.000047      0.000035      0.000363
      3.83638      4.42332      3.12708        -0.000021      0.000088      0.000465
     11.50288      4.42343      3.12631        -0.000006      0.000058      0.000367
     13.41946      1.10374      3.12590        -0.000045     -0.000024      0.000245
      5.75299      1.10381      3.12816         0.000000     -0.000088      0.000450
     17.25274      7.74320      3.12524         0.000000     -0.000024      0.000326
      9.58635      7.74303      3.12635         0.000006     -0.000010      0.000359
      1.91991      1.10378      3.12751        -0.000013     -0.000062      0.000468
      9.58639      1.10375      3.12592         0.000027      0.000025      0.000378
      5.75309      7.74306      3.12619         0.000058     -0.000015      0.000404
     13.41945      7.74308      3.12621         0.000075     -0.000010      0.000394
     19.16947     11.06268      5.47312         0.000015      0.000045      0.000064
     11.50303     11.06238      5.47244        -0.000059     -0.000039     -0.000057
     15.33620      4.42333      5.47390         0.000011      0.000009      0.000034
      7.66994      4.42339      5.47266        -0.000036      0.000084     -0.000103
      7.66943     11.06252      5.47299        -0.000051      0.000095      0.000032
     15.33644     11.06248      5.47242         0.000056      0.000058      0.000002
      3.83628      4.42403      5.47425        -0.000034     -0.000042     -0.000068
     11.50283      4.42327      5.47340         0.000026     -0.000132      0.000036
     13.41926      1.10365      5.47292         0.000030      0.000113     -0.000143
      5.75364      1.10355      5.47539        -0.000002      0.000025      0.000069
     17.25277      7.74348      5.47223        -0.000061      0.000072     -0.000076
      9.58640      7.74295      5.47347         0.000052      0.000027      0.000010
      1.91940      1.10356      5.47471         0.000015      0.000025     -0.000052
      9.58659      1.10368      5.47296        -0.000021      0.000046     -0.000099
      5.75294      7.74326      5.47330         0.000033      0.000029     -0.000078
     13.41961      7.74320      5.47332        -0.000052     -0.000001     -0.000088
     15.33639      8.84962      6.25746        -0.000087      0.000010     -0.000109
      7.66972      8.84949      6.25772         0.000072      0.000039     -0.000147
     11.50295      2.21022      6.25795         0.000012     -0.000020     -0.000068
      3.83633      2.21065      6.25834        -0.000064      0.000083     -0.000271
     19.16913      8.84954      6.25770         0.000080      0.000069     -0.000178
     11.50295      8.84969      6.25791         0.000123      0.000085     -0.000161
     15.33542      2.21011      6.25838         0.000040      0.000072     -0.000160
      7.67069      2.21084      6.25818         0.000108      0.000124     -0.000185
     17.25274     12.16927      6.25719         0.000127      0.000042     -0.000238
      9.58639     12.16849      6.25724         0.000072      0.000092     -0.000170
     13.41941      5.53004      6.25764         0.000140      0.000089     -0.000180
      5.75364      5.53008      6.25755        -0.000052     -0.000022     -0.000298
     21.08606     12.16942      6.25751        -0.000037      0.000058     -0.000208
     13.41968     12.16818      6.25745        -0.000054     -0.000030     -0.000174
     17.25250      5.53099      6.25785         0.000050     -0.000046     -0.000312
      9.58619      5.52981      6.25787        -0.000033      0.000079     -0.000126
     15.33550      8.85032      8.60475         0.002211     -0.000018     -0.013580
      7.66893      8.85016      8.60496         0.000170     -0.000207     -0.008363
     11.50214      2.21099      8.60525         0.001210     -0.001467     -0.011075
      3.83547      2.21235      8.60590         0.000016      0.004246      0.015430
     19.16891      8.85027      8.60496         0.004968     -0.000769     -0.009902
     11.50226      8.85001      8.60522         0.004401     -0.003747     -0.007607
     15.33569      2.21095      8.60561         0.006241      0.000087     -0.005623
      7.66989      2.21110      8.60531         0.004368     -0.005296     -0.009300
     17.25205     12.16975      8.60427         0.001626     -0.003634     -0.013442
      9.58572     12.16919      8.60443        -0.000387     -0.004283     -0.010219
     13.41883      5.53046      8.60477         0.001740     -0.003059     -0.007896
      5.75230      5.53028      8.60482        -0.000172     -0.002552     -0.006499
     21.08562     12.16949      8.60468         0.002491     -0.006921     -0.011307
     13.41962     12.16871      8.60451         0.008992     -0.004642     -0.011736
     17.25244      5.53049      8.60503         0.005046     -0.007741     -0.007739
      9.58557      5.53033      8.60514         0.005112     -0.004178     -0.008421
     11.50245      6.63664      9.38715        -0.005359      0.003064     -0.015003
      3.83629      6.63703      9.38717         0.003596      0.001824     -0.015115
     15.33585     13.27611      9.38609        -0.006122      0.006659     -0.011922
      7.66962     13.27565      9.38633         0.000088     -0.002085     -0.016453
     15.33591      6.63696      9.38605        -0.009471      0.007928     -0.020745
      7.66886      6.63671      9.38662         0.009913      0.004805     -0.020643
     19.16891     13.27573      9.38561        -0.001399      0.003328     -0.016420
     11.50323     13.27625      9.38292         0.000482     -0.023950     -0.025894
     13.41919      9.95550      9.38852         0.007448     -0.006357     -0.015389
      5.75268      9.95639      9.38762        -0.007116      0.004549     -0.012157
      9.58646      3.31767      9.38932         0.010394     -0.001005     -0.014627
      1.91836      3.31826      9.38999        -0.024400      0.015921     -0.011229
     17.25238      9.95672      9.38656        -0.001065      0.002557     -0.014874
      9.58577      9.95605      9.38767        -0.000740     -0.004053     -0.018139
     13.41895      3.31741      9.38745        -0.007623      0.000761     -0.017143
      5.75386      3.31734      9.38786         0.018656      0.004616     -0.018014
     11.50447      6.63447     11.73208         0.006072     -0.004353      0.000917
      3.83865      6.63526     11.73218        -0.003228     -0.004169      0.025975
     15.33799     13.27379     11.73056         0.006668     -0.006746     -0.013595
      7.67220     13.27296     11.73090         0.001375      0.002668      0.027958
     15.33783      6.63549     11.73045         0.010068     -0.008150      0.040361
      7.67067      6.63480     11.73122        -0.011072     -0.004888      0.040076
     19.17083     13.27314     11.72979         0.000733     -0.003260      0.018383
     11.50596     13.27354     11.72570        -0.001974      0.027584      0.071366
     13.42125      9.95247     11.73413        -0.005249      0.006520      0.006367
      5.75478      9.95427     11.73280         0.007223     -0.005607     -0.013025
      9.58941      3.31628     11.73525        -0.010059     -0.000727      0.008513
      1.91893      3.31770     11.73610         0.027673     -0.016286     -0.019395
     17.25434      9.95499     11.73128         0.000778     -0.002307      0.013836
      9.58784      9.95349     11.73284         0.000254      0.004994      0.022132
     13.42042      3.31580     11.73251         0.007401     -0.000403      0.019843
      5.75777      3.31575     11.73301        -0.021430     -0.005433      0.031604
      7.67386      4.42366     12.51847         0.093628      0.004936      0.069444
     15.33348      4.42520     12.51885        -0.063023      0.022407      0.068161
     11.50492     11.06205     12.51142         0.034577     -0.140987      0.136141
     19.17109     11.06058     12.51451         0.000329      0.005304     -0.008182
     11.50626      4.42323     12.51896        -0.003863      0.047241      0.065548
      3.84037      4.42125     12.51258        -0.033668     -0.044582     -0.161602
     15.33789     11.06096     12.51394        -0.001074      0.044202     -0.055179
      7.67173     11.06003     12.51548        -0.036041     -0.036322     -0.020256
      9.58719      7.73939     12.51435         0.048038      0.009859      0.159348
     17.25470      7.74187     12.51298         0.012596      0.013570     -0.039323
      5.75439      1.10080     12.51087         0.014885      0.006509      0.023523
     13.42133      1.10059     12.50990         0.001805      0.000400     -0.004904
     13.42175      7.73799     12.51668        -0.074956      0.004230      0.096983
      5.75524      7.74119     12.51602         0.015600      0.052480     -0.028164
      9.58855      1.10091     12.51241        -0.033744     -0.004942     -0.034792
      1.92454      1.10075     12.50814        -0.005185      0.079617     -0.126157
      7.69688      4.42894     14.87536        -0.000972      0.000205      0.001135
     15.31383      4.43571     14.87656         0.000563      0.000437      0.000204
     11.51104     11.03043     14.87535        -0.000724     -0.000918      0.000838
     19.17171     11.06296     14.86047        -0.000416     -0.001281     -0.001427
     11.50500      4.43348     14.87531         0.000950     -0.000242     -0.002260
      3.83674      4.41060     14.83836        -0.001400      0.001685      0.004630
     15.33810     11.07232     14.85337        -0.000532      0.000521     -0.000714
      7.66839     11.05242     14.86003         0.000217      0.001226     -0.000429
      9.59722      7.73752     14.88137         0.000326      0.000280     -0.001764
     17.25651      7.74588     14.85418         0.000126     -0.001173      0.001435
      5.75570      1.10045     14.85934         0.000429      0.000268     -0.000288
     13.41960      1.10198     14.85388         0.000346     -0.000236      0.000202
     13.40857      7.73815     14.87672        -0.001385      0.000036     -0.002147
      5.76166      7.74846     14.85966        -0.000140     -0.000635      0.001161
      9.58173      1.10020     14.85344        -0.000258      0.000197     -0.000267
      1.92682      1.11776     14.83685        -0.001175      0.001165      0.000780
      3.84123      2.20779     15.64176         0.000659      0.000190      0.000699
     11.49606      2.20886     15.62092         0.000051      0.001338     -0.001314
      7.67898      8.84328     15.67092         0.000578      0.000927      0.000444
     15.33391      8.85927     15.61348        -0.000096      0.000510     -0.001075
      7.67144      2.21025     15.64675         0.000414      0.001252      0.000108
     15.34048      2.21103     15.62272         0.000042      0.000851     -0.001520
     11.50431      8.81897     15.73755         0.000190     -0.000100      0.000595
     19.17399      8.84926     15.64109         0.000027     -0.000218      0.000571
      5.74972      5.52174     15.59009        -0.000404     -0.000533      0.000390
     13.40040      5.54263     15.71847         0.000330      0.000982      0.003052
      9.59284     12.18199     15.57762         0.001207     -0.000635      0.000043
     17.25627     12.16961     15.64546        -0.000828      0.000352      0.001313
      9.61001      5.53954     15.71442         0.000248      0.000353     -0.000631
     17.25982      5.52350     15.60710         0.001200     -0.000550     -0.000806
     13.41798     12.16548     15.64609         0.000330     -0.000797      0.000125
     21.08948     12.16872     15.64135         0.001283      0.000392      0.000492
      3.84141      2.21535     17.99002         0.000413     -0.001093     -0.000107
     11.49195      2.20634     17.95496        -0.000324     -0.000653     -0.000478
      7.68231      8.84411     18.02905        -0.000060     -0.000385     -0.000276
     15.34211      8.87739     17.94531        -0.000126      0.002292     -0.000300
      7.67594      2.21028     17.99464         0.000146      0.002047     -0.001003
     15.34104      2.20649     17.96072         0.000396      0.000055     -0.000668
     11.50669      8.79320     18.13426        -0.000505      0.000557      0.001503
     19.17456      8.84679     17.98727         0.000084      0.000792     -0.000601
      5.74703      5.51706     17.91126         0.002833      0.000285     -0.004310
     13.40388      5.54659     18.10350         0.001228      0.000637      0.001909
      9.59481     12.21603     17.89562        -0.000526     -0.000713     -0.000514
     17.25967     12.17219     17.99317        -0.000483      0.000589      0.001087
      9.63681      5.54511     18.09281         0.001579     -0.000328     -0.001675
     17.28357      5.52281     17.93791         0.000824      0.002408     -0.001084
     13.42224     12.16346     17.99344         0.000506      0.001174     -0.000227
     21.09115     12.17030     17.98762         0.000237      0.000339      0.000498
      7.68431     13.27640     18.72780         0.000406      0.000399      0.001065
     15.33858     13.27422     18.75863        -0.000020      0.001024      0.000763
      3.85627      6.62543     18.72561         0.000560      0.003319      0.001438
     11.51721      6.59496     19.11945         0.001328     -0.001290     -0.003422
     11.50115     13.27756     18.73569         0.000198     -0.001687      0.001205
     11.51005      0.00500     18.74795         0.000491      0.000511      0.001764
      7.63702      6.59335     18.73442        -0.002535     -0.001151      0.003216
     15.40329      6.67150     18.68698         0.002701     -0.001722      0.004578
     17.24908      3.32212     18.73534        -0.000107     -0.001152      0.000292
      9.59378      3.30551     18.77862        -0.000384      0.000111      0.000389
      5.75378      9.95805     18.75663        -0.000774      0.001723      0.001164
     13.43650      9.95572     18.78286         0.000346      0.000350     -0.000716
      5.75805      3.32911     18.73739        -0.002469     -0.002465      0.001715
     13.41468      3.27483     18.72927         0.001140     -0.000114      0.002685
      9.59484     10.04603     18.71105        -0.001915     -0.001474      0.001204
     17.25724      9.95623     18.74530        -0.001228      0.002632      0.001089
 -----------------------------------------------------------------------------------
    total drift:                               -0.001645     -0.006075     -0.000228


--------------------------------------------------------------------------------------------------------



  FREE ENERGIE OF THE ION-ELECTRON SYSTEM (eV)
  ---------------------------------------------------
  free  energy   TOTEN  =     -1358.01519788 eV

  energy  without entropy=    -1358.01519788  energy(sigma->0) =    -1358.01519788
 
 d Force = 0.2307470E-04[ 0.157E-04, 0.305E-04]  d Energy = 0.2280541E-04 0.269E-06
 d Force =-0.6073024E+00[-0.607E+00,-0.607E+00]  d Ewald  =-0.6073025E+00 0.772E-07


--------------------------------------------------------------------------------------------------------


    POTLOK:  cpu time      0.4347: real time      0.4371


--------------------------------------------------------------------------------------------------------


 Conjugate gradient step on ions:
 trial-energy change:   -0.000023  1 .order   -0.000023   -0.000030   -0.000016
  (g-gl).g = 0.349E-04      g.g   = 0.480E-04  gl.gl    = 0.672E-04
 g(Force)  = 0.480E-04   g(Stress)= 0.000E+00 ortho     =-0.174E-05
 gamma     =   0.51956
 trial     =   0.64724
 opt step  =   1.33517  (harmonic =   1.33517) maximal distance =0.00035173
 next E    = -1358.015206   (d E  =  -0.00003)


--------------------------------------------------------------------------------------------------------


  
 reached required accuracy - stopping structural energy minimisation
 writing wavefunctions
     LOOP+:  cpu time    348.4749: real time    350.8603
    4ORBIT:  cpu time      0.0000: real time      0.0000

 total amount of memory used by VASP MPI-rank0   284935. kBytes
=======================================================================

   base      :      30000. kBytes
   nonl-proj :     102785. kBytes
   fftplans  :      19226. kBytes
   grid      :      34475. kBytes
   one-center:        248. kBytes
   wavefun   :      98201. kBytes
 
  
  
 General timing and accounting informations for this job:
 ========================================================
  
                  Total CPU time used (sec):     5416.576
                            User time (sec):     5379.117
                          System time (sec):       37.459
                         Elapsed time (sec):     5462.782
  
                   Maximum memory used (kb):      791924.
                   Average memory used (kb):          N/A
  
                          Minor page faults:       102908
                          Major page faults:            0
                 Voluntary context switches:        12630
