 vasp.6.3.2 27Jun22 (build Oct 28 2022 14:47:18) complex                        
  
 executed on             LinuxIFC date 2024.01.03  16:24:08
 running on  640 total cores
 distrk:  each k-point on  128 cores,    5 groups
 distr:  one band on NCORE=  16 cores,    8 groups


--------------------------------------------------------------------------------------------------------


 INCAR:
   SYSTEM = Si_surface_6layer
   ISTART = 0
   IVDW = 12
   ISMEAR = -5
   SIGMA = 0.1
   ENCUT = 540
   EDIFF = 1e-7
   NELMIN = 5
   EDIFFG = -9.5e-3
   PREC = Accurate
   IBRION = 2
   ISIF = 2
   NSW = 1
   NBANDS = 640
   NCORE = 16
   KPAR = 5
   ISYM = 0
   IDIPOL = 3

 POTCAR:    PAW_PBE C_GW 28Sep2005                
 POTCAR:    PAW_PBE H_GW 21Apr2008                
 POTCAR:    PAW_PBE Si_GW 04May2012               
 POTCAR:    PAW_PBE C_GW 28Sep2005                
   SHA256 =  2c64eee1059aeb37bcbfbbf93191b6229a866e6b7fb7be04c2badc02647cde23 C_GW/POTCAR           
   COPYR  = (c) Copyright 28Sep2005 Georg Kresse                                                    
   COPYR  = This file is part of the software VASP. Any use, copying, and all other rights are regul
   COPYR  = If you do not have a valid VASP license, you may not use, copy or distribute this file. 
   VRHFIN =C: s2p2                                                                                  
   LEXCH  = PE                                                                                      
   EATOM  =   147.1560 eV,   10.8157 Ry                                                             
                                                                                                    
   TITEL  = PAW_PBE C_GW 28Sep2005                                                                  
   LULTRA =        F    use ultrasoft PP ?                                                          
   IUNSCR =        0    unscreen: 0-lin 1-nonlin 2-no                                               
   RPACOR =    0.000    partial core radius                                                         
   POMASS =   12.011; ZVAL   =    4.000    mass and valenz                                          
   RCORE  =    1.500    outmost cutoff radius                                                       
   RWIGS  =    1.630; RWIGS  =    0.863    wigner-seitz radius (au A)                               
   ENMAX  =  413.992; ENMIN  =  310.494 eV                                                          
   ICORE  =        2    local potential                                                             
   LCOR   =        T    correct aug charges                                                         
   LPAW   =        T    paw PP                                                                      
   EAUG   =  644.873                                                                                
   DEXC   =    0.000                                                                                
   RMAX   =    1.529    core radius for proj-oper                                                   
   RAUG   =    1.300    factor for augmentation sphere                                              
   RDEP   =    1.501    radius for radial grids                                                     
   RDEPT  =    1.300    core radius for aug-charge                                                  
                                                                                                    
   Atomic configuration                                                                             
    4 entries                                                                                       
     n  l   j            E        occ.                                                              
     1  0  0.50      -273.3789   2.0000                                                             
     2  0  0.50       -13.7508   2.0000                                                             
     2  1  0.50        -5.2854   2.0000                                                             
     3  2  1.50        -5.4423   0.0000                                                             
   Description                                                                                      
     l       E           TYP  RCUT    TYP  RCUT                                                     
     0    -13.7508457     23  1.200                                                                 
     0     95.2407820     23  1.200                                                                 
     1     -5.2854382     23  1.500                                                                 
     1    108.8466080     23  1.500                                                                 
     2     -5.4423304      7  1.500                                                                 
  local pseudopotential read in
  kinetic energy density of atom read in
  atomic valenz-charges read in
  non local Contribution for L=           0  read in
    real space projection operators read in
  non local Contribution for L=           0  read in
    real space projection operators read in
  non local Contribution for L=           1  read in
    real space projection operators read in
  non local Contribution for L=           1  read in
    real space projection operators read in
    PAW grid and wavefunctions read in
 
   number of l-projection  operators is LMAX  =           4
   number of lm-projection operators is LMMAX =           8
 
 POTCAR:    PAW_PBE H_GW 21Apr2008                
   SHA256 =  cecc88617a3d1ece9865646f5d462fc0f44fd1f68d6f2eb08f18a2e421902afb H_GW/POTCAR           
   COPYR  = (c) Copyright 21Apr2008 Georg Kresse                                                    
   COPYR  = This file is part of the software VASP. Any use, copying, and all other rights are regul
   COPYR  = If you do not have a valid VASP license, you may not use, copy or distribute this file. 
   VRHFIN =H: ultrasoft test                                                                        
   LEXCH  = PE                                                                                      
   EATOM  =    12.4884 eV,    0.9179 Ry                                                             
                                                                                                    
   TITEL  = PAW_PBE H_GW 21Apr2008                                                                  
   LULTRA =        F    use ultrasoft PP ?                                                          
   IUNSCR =        0    unscreen: 0-lin 1-nonlin 2-no                                               
   RPACOR =    0.000    partial core radius                                                         
   POMASS =    1.000; ZVAL   =    1.000    mass and valenz                                          
   RCORE  =    1.100    outmost cutoff radius                                                       
   RWIGS  =    1.100; RWIGS  =    0.582    wigner-seitz radius (au A)                               
   ENMAX  =  300.000; ENMIN  =  250.000 eV                                                          
   RCLOC  =    0.701    cutoff for local pot                                                        
   LCOR   =        T    correct aug charges                                                         
   LPAW   =        T    paw PP                                                                      
   EAUG   =  500.000                                                                                
   RMAX   =    1.123    core radius for proj-oper                                                   
   RAUG   =    1.200    factor for augmentation sphere                                              
   RDEP   =    1.112    radius for radial grids                                                     
   RDEPT  =    1.100    core radius for aug-charge                                                  
                                                                                                    
   Atomic configuration                                                                             
    3 entries                                                                                       
     n  l   j            E        occ.                                                              
     1  0  0.50        -6.4927   1.0000                                                             
     2  1  0.50        -3.4015   0.0000                                                             
     3  2  1.50        13.6058   0.0000                                                             
   Description                                                                                      
     l       E           TYP  RCUT    TYP  RCUT                                                     
     0     -6.4927495     23  0.950                                                                 
     0      6.8029130     23  0.950                                                                 
     1     -4.0817478     23  1.100                                                                 
     1    108.8466080     23  1.100                                                                 
     2     81.6349560     23  1.100                                                                 
  local pseudopotential read in
  kinetic energy density of atom read in
  atomic valenz-charges read in
  non local Contribution for L=           0  read in
    real space projection operators read in
  non local Contribution for L=           0  read in
    real space projection operators read in
  non local Contribution for L=           1  read in
    real space projection operators read in
  non local Contribution for L=           1  read in
    real space projection operators read in
  non local Contribution for L=           2  read in
    real space projection operators read in
    PAW grid and wavefunctions read in
 
   number of l-projection  operators is LMAX  =           5
   number of lm-projection operators is LMMAX =          13
 
 POTCAR:    PAW_PBE Si_GW 04May2012               
   SHA256 =  9ee269d4247e69d62ab9db642b0c3f6e4981ddd1f39659ad08dec53e20e43eb1 Si_GW/POTCAR          
   COPYR  = (c) Copyright 04May2012 Georg Kresse                                                    
   COPYR  = This file is part of the software VASP. Any use, copying, and all other rights are regul
   COPYR  = If you do not have a valid VASP license, you may not use, copy or distribute this file. 
   VRHFIN =Si: s2p2                                                                                 
   LEXCH  = PE                                                                                      
   EATOM  =   103.0669 eV,    7.5752 Ry                                                             
                                                                                                    
   TITEL  = PAW_PBE Si_GW 04May2012                                                                 
   LULTRA =        F    use ultrasoft PP ?                                                          
   IUNSCR =        1    unscreen: 0-lin 1-nonlin 2-no                                               
   RPACOR =    1.500    partial core radius                                                         
   POMASS =   28.085; ZVAL   =    4.000    mass and valenz                                          
   RCORE  =    1.900    outmost cutoff radius                                                       
   RWIGS  =    2.480; RWIGS  =    1.312    wigner-seitz radius (au A)                               
   ENMAX  =  245.345; ENMIN  =  184.009 eV                                                          
   ICORE  =        3    local potential                                                             
   LCOR   =        T    correct aug charges                                                         
   LPAW   =        T    paw PP                                                                      
   EAUG   =  412.952                                                                                
   DEXC   =    0.000                                                                                
   RMAX   =    1.950    core radius for proj-oper                                                   
   RAUG   =    1.300    factor for augmentation sphere                                              
   RDEP   =    1.993    radius for radial grids                                                     
   RDEPT  =    2.000    core radius for aug-charge                                                  
                                                                                                    
   Atomic configuration                                                                             
    7 entries                                                                                       
     n  l   j            E        occ.                                                              
     1  0  0.50     -1785.8828   2.0000                                                             
     2  0  0.50      -139.4969   2.0000                                                             
     2  1  1.50       -95.5546   6.0000                                                             
     3  0  0.50       -10.8127   2.0000                                                             
     3  1  0.50        -4.0811   2.0000                                                             
     3  2  1.50        -4.0817   0.0000                                                             
     4  3  2.50        -4.0817   0.0000                                                             
   Description                                                                                      
     l       E           TYP  RCUT    TYP  RCUT                                                     
     0    -10.8127223     23  1.900                                                                 
     0     95.2407820     23  1.900                                                                 
     1     -4.0811372     23  1.900                                                                 
     1     54.4233040     23  1.900                                                                 
     2     -8.1634956     23  1.900                                                                 
     2     81.6349560     23  1.900                                                                 
     3     27.2116520     23  1.900                                                                 
  local pseudopotential read in
  partial core-charges read in
  partial kinetic energy density read in
  kinetic energy density of atom read in
  atomic valenz-charges read in
  non local Contribution for L=           0  read in
    real space projection operators read in
  non local Contribution for L=           0  read in
    real space projection operators read in
  non local Contribution for L=           1  read in
    real space projection operators read in
  non local Contribution for L=           1  read in
    real space projection operators read in
  non local Contribution for L=           2  read in
    real space projection operators read in
  non local Contribution for L=           2  read in
    real space projection operators read in
    PAW grid and wavefunctions read in
 
   number of l-projection  operators is LMAX  =           6
   number of lm-projection operators is LMMAX =          18
 
 -----------------------------------------------------------------------------
|                                                                             |
|               ----> ADVICE to this user running VASP <----                  |
|                                                                             |
|     You have a (more or less) 'large supercell' and for larger cells it     |
|     might be more efficient to use real-space projection operators.         |
|     Therefore, try LREAL= Auto in the INCAR file.                           |
|     Mind: For very accurate calculation, you might also keep the            |
|     reciprocal projection scheme (i.e. LREAL=.FALSE.).                      |
|                                                                             |
 -----------------------------------------------------------------------------

  PAW_PBE C_GW 28Sep2005                :
 energy of atom  1       EATOM= -147.1560
 kinetic energy error for atom=    0.0068 (will be added to EATOM!!)
  PAW_PBE H_GW 21Apr2008                :
 energy of atom  2       EATOM=  -12.4884
 kinetic energy error for atom=    0.0069 (will be added to EATOM!!)
  PAW_PBE Si_GW 04May2012               :
 energy of atom  3       EATOM= -103.0669
 kinetic energy error for atom=    0.0005 (will be added to EATOM!!)
 
 
 POSCAR: 4x4_si_surface_from540eV_1x1x1conv
  positions in cartesian coordinates
  No initial velocities read in
 exchange correlation table for  LEXCH =        8
   RHO(1)=    0.500       N(1)  =     2000
   RHO(2)=  100.500       N(2)  =     4000
 


--------------------------------------------------------------------------------------------------------


 ion  position               nearest neighbor table
   1  0.492  0.422  0.693-  19 1.08   2 1.40   3 1.40
   2  0.403  0.488  0.677-   1 1.40  11 1.40   4 1.42
   3  0.586  0.393  0.679-   1 1.40   7 1.40   6 1.42
   4  0.409  0.522  0.646-   5 1.40  14 1.40   2 1.42
   5  0.503  0.492  0.632-  24 1.08   6 1.40   4 1.40
   6  0.592  0.428  0.648-   5 1.40  10 1.40   3 1.42
   7  0.676  0.329  0.696-  22 1.08   8 1.40   3 1.40
   8  0.769  0.302  0.682-  23 1.08   9 1.40   7 1.40
   9  0.774  0.336  0.652-  21 1.08   8 1.40  10 1.40
  10  0.686  0.399  0.635-  20 1.08   9 1.40   6 1.40
  11  0.309  0.519  0.691-  15 1.08  12 1.40   2 1.40
  12  0.221  0.585  0.675-  16 1.08  11 1.40  13 1.40
  13  0.226  0.620  0.644-  17 1.08  12 1.40  14 1.40
  14  0.319  0.588  0.629-  18 1.08  13 1.40   4 1.40
  15  0.304  0.494  0.715-  11 1.08
  16  0.148  0.610  0.686-  12 1.08
  17  0.157  0.671  0.631-  13 1.08
  18  0.322  0.616  0.606-  14 1.08
  19  0.488  0.396  0.717-   1 1.08
  20  0.691  0.425  0.611-  10 1.08
  21  0.847  0.315  0.641-   9 1.08
  22  0.673  0.302  0.720-   7 1.08
  23  0.838  0.253  0.695-   8 1.08
  24  0.507  0.519  0.608-   5 1.08
  25  0.000  1.000  0.021-  57 1.50
  26  0.500  1.000  0.021-  58 1.50
  27  0.000  0.500  0.021-  59 1.50
  28  0.500  0.500  0.021-  60 1.50
  29  0.250  1.000  0.021-  61 1.50
  30  0.750  1.000  0.021-  62 1.50
  31  0.250  0.500  0.021-  63 1.50
  32  0.750  0.500  0.021-  64 1.50
  33  0.000  0.250  0.021-  65 1.50
  34  0.500  0.250  0.021-  66 1.50
  35  0.000  0.750  0.021-  67 1.50
  36  0.500  0.750  0.021-  68 1.50
  37  0.250  0.250  0.021-  69 1.50
  38  0.750  0.250  0.021-  70 1.50
  39  0.250  0.750  0.021-  71 1.50
  40  0.750  0.750  0.021-  72 1.50
  41  0.005  0.999  0.487- 233 1.50
  42  0.501  1.000  0.488- 234 1.50
  43  0.004  0.497  0.487- 235 1.50
  44  0.248  0.998  0.487- 237 1.50
  45  0.750  0.002  0.487- 238 1.50
  46  0.242  0.486  0.486- 239 1.49
  47  0.761  0.511  0.485- 240 1.50
  48  0.998  0.252  0.487- 241 1.51
  49  0.505  0.244  0.488- 242 1.50
  50  0.998  0.751  0.488- 243 1.51
  51  0.506  0.751  0.488- 244 1.50
  52  0.248  0.254  0.487- 245 1.50
  53  0.757  0.233  0.486- 246 1.50
  54  0.236  0.775  0.486- 247 1.50
  55  0.750  0.749  0.487- 248 1.50
  56  0.503  0.497  0.487- 236 1.13
  57  0.000  1.000  0.057-  25 1.50  81 2.34  77 2.34  85 2.34
  58  0.500  1.000  0.057-  26 1.50  78 2.34  86 2.34  82 2.34
  59  0.000  0.500  0.057-  27 1.50  83 2.34  87 2.34  79 2.34
  60  0.500  0.500  0.057-  28 1.50  80 2.34  88 2.34  84 2.34
  61  0.250  1.000  0.057-  29 1.50  74 2.34  85 2.34  82 2.34
  62  0.750  1.000  0.057-  30 1.50  73 2.34  81 2.34  86 2.34
  63  0.250  0.500  0.057-  31 1.50  76 2.34  87 2.34  84 2.34
  64  0.750  0.500  0.057-  32 1.50  83 2.34  75 2.34  88 2.34
  65  0.000  0.250  0.057-  33 1.50  75 2.34  85 2.34  79 2.34
  66  0.500  0.250  0.057-  34 1.50  86 2.34  76 2.34  80 2.34
  67  0.000  0.750  0.057-  35 1.50  73 2.34  77 2.34  87 2.34
  68  0.500  0.750  0.057-  36 1.50  78 2.34  74 2.34  88 2.34
  69  0.250  0.250  0.057-  37 1.50  76 2.34  79 2.34  82 2.34
  70  0.750  0.250  0.057-  38 1.50  81 2.34  80 2.34  75 2.34
  71  0.250  0.750  0.057-  39 1.50  74 2.34  77 2.34  84 2.34
  72  0.750  0.750  0.057-  40 1.50  83 2.34  78 2.34  73 2.34
  73  0.834  0.833  0.075-  67 2.34  62 2.34  72 2.34  89 2.35
  74  0.334  0.833  0.075-  71 2.34  61 2.34  68 2.34  90 2.35
  75  0.834  0.333  0.075-  65 2.34  70 2.34  64 2.34  91 2.35
  76  0.334  0.333  0.075-  69 2.34  63 2.34  66 2.34  92 2.35
  77  0.084  0.833  0.075-  71 2.34  67 2.34  57 2.34  93 2.35
  78  0.584  0.833  0.075-  68 2.34  58 2.34  72 2.34  94 2.35
  79  0.084  0.333  0.075-  65 2.34  69 2.34  59 2.34  95 2.35
  80  0.584  0.333  0.075-  60 2.34  66 2.34  70 2.34  96 2.35
  81  0.834  0.083  0.075-  70 2.34  57 2.34  62 2.34  97 2.35
  82  0.334  0.083  0.075-  69 2.34  61 2.34  58 2.34  98 2.35
  83  0.834  0.583  0.075-  64 2.34  59 2.34  72 2.34  99 2.35
  84  0.334  0.583  0.075-  60 2.34  63 2.34  71 2.34 100 2.35
  85  0.084  0.083  0.075-  65 2.34  61 2.34  57 2.34 101 2.35
  86  0.584  0.083  0.075-  66 2.34  58 2.34  62 2.34 102 2.35
  87  0.084  0.583  0.075-  63 2.34  59 2.34  67 2.34 103 2.35
  88  0.584  0.583  0.075-  60 2.34  68 2.34  64 2.34 104 2.35
  89  0.834  0.833  0.132-  73 2.35 113 2.35 117 2.35 109 2.35
  90  0.334  0.833  0.132-  74 2.35 118 2.35 114 2.35 110 2.35
  91  0.834  0.333  0.132-  75 2.35 115 2.35 119 2.35 111 2.35
  92  0.334  0.333  0.132-  76 2.35 112 2.35 120 2.35 116 2.35
  93  0.084  0.833  0.132-  77 2.35 114 2.35 117 2.35 106 2.35
  94  0.584  0.833  0.132-  78 2.35 118 2.35 105 2.35 113 2.35
  95  0.084  0.333  0.132-  79 2.35 116 2.35 119 2.35 108 2.35
  96  0.584  0.333  0.132-  80 2.35 107 2.35 115 2.35 120 2.35
  97  0.834  0.083  0.132-  81 2.35 111 2.35 117 2.35 107 2.35
  98  0.334  0.083  0.132-  82 2.35 112 2.35 118 2.35 108 2.35
  99  0.834  0.583  0.132-  83 2.35 119 2.35 105 2.35 109 2.35
 100  0.334  0.583  0.132-  84 2.35 106 2.35 120 2.35 110 2.35
 101  0.084  0.083  0.132-  85 2.35 111 2.35 114 2.35 108 2.35
 102  0.584  0.083  0.132-  86 2.35 112 2.35 107 2.35 113 2.35
 103  0.084  0.583  0.132-  87 2.35 106 2.35 116 2.35 109 2.35
 104  0.584  0.583  0.132-  88 2.35 105 2.35 115 2.35 110 2.35
 105  0.667  0.666  0.151- 121 2.35  99 2.35  94 2.35 104 2.35
 106  0.167  0.666  0.151- 122 2.35 100 2.35 103 2.35  93 2.35
 107  0.667  0.166  0.151- 123 2.35  97 2.35 102 2.35  96 2.35
 108  0.167  0.166  0.151- 124 2.35  95 2.35 101 2.35  98 2.35
 109  0.917  0.666  0.151- 125 2.35  99 2.35 103 2.35  89 2.35
 110  0.417  0.666  0.151- 126 2.35  90 2.35 100 2.35 104 2.35
 111  0.917  0.166  0.151- 127 2.35  97 2.35 101 2.35  91 2.35
 112  0.417  0.166  0.151- 128 2.35  92 2.35 102 2.35  98 2.35
 113  0.667  0.916  0.151- 129 2.35  94 2.35 102 2.35  89 2.35
 114  0.167  0.916  0.151- 130 2.35  90 2.35  93 2.35 101 2.35
 115  0.667  0.416  0.151- 131 2.35  91 2.35 104 2.35  96 2.35
 116  0.167  0.416  0.151- 132 2.35  92 2.35  95 2.35 103 2.35
 117  0.917  0.916  0.151- 133 2.35  97 2.35  93 2.35  89 2.35
 118  0.417  0.916  0.151- 134 2.35  90 2.35  94 2.35  98 2.35
 119  0.917  0.417  0.151- 135 2.35  99 2.35  95 2.35  91 2.35
 120  0.417  0.416  0.151- 136 2.35  92 2.35 100 2.35  96 2.35
 121  0.667  0.667  0.207- 145 2.35 141 2.35 149 2.35 105 2.35
 122  0.167  0.666  0.207- 146 2.35 106 2.35 150 2.35 142 2.35
 123  0.667  0.167  0.207- 147 2.35 107 2.35 151 2.35 143 2.35
 124  0.167  0.167  0.207- 144 2.35 108 2.35 152 2.35 148 2.35
 125  0.917  0.666  0.207- 149 2.35 109 2.35 146 2.35 138 2.35
 126  0.417  0.666  0.207- 150 2.35 110 2.35 145 2.35 137 2.35
 127  0.917  0.167  0.207- 151 2.35 111 2.35 148 2.35 140 2.35
 128  0.417  0.167  0.207- 152 2.35 112 2.35 139 2.35 147 2.35
 129  0.667  0.916  0.207- 139 2.35 143 2.35 113 2.35 149 2.35
 130  0.167  0.916  0.207- 140 2.35 144 2.35 114 2.35 150 2.35
 131  0.667  0.416  0.207- 137 2.35 115 2.35 141 2.35 151 2.35
 132  0.167  0.416  0.207- 138 2.35 142 2.35 116 2.35 152 2.35
 133  0.917  0.916  0.207- 143 2.35 117 2.35 140 2.35 146 2.35
 134  0.417  0.916  0.207- 144 2.35 118 2.35 139 2.35 145 2.35
 135  0.917  0.416  0.207- 141 2.35 119 2.35 148 2.35 138 2.35
 136  0.417  0.416  0.207- 142 2.35 120 2.35 137 2.35 147 2.35
 137  0.500  0.500  0.226- 153 2.34 131 2.35 136 2.35 126 2.35
 138  0.000  0.500  0.226- 154 2.35 132 2.35 125 2.35 135 2.35
 139  0.500  1.000  0.226- 155 2.34 129 2.35 134 2.35 128 2.35
 140  0.000  1.000  0.226- 156 2.34 130 2.35 133 2.35 127 2.35
 141  0.750  0.500  0.226- 157 2.34 135 2.35 121 2.35 131 2.35
 142  0.250  0.500  0.226- 158 2.34 136 2.35 132 2.35 122 2.35
 143  0.750  1.000  0.226- 159 2.34 133 2.35 129 2.35 123 2.35
 144  0.250  1.000  0.226- 160 2.34 134 2.35 130 2.35 124 2.35
 145  0.500  0.750  0.226- 161 2.35 121 2.35 126 2.35 134 2.35
 146  0.000  0.750  0.226- 162 2.35 122 2.35 125 2.35 133 2.35
 147  0.500  0.250  0.226- 163 2.35 123 2.35 136 2.35 128 2.35
 148  0.000  0.250  0.226- 164 2.35 135 2.35 127 2.35 124 2.35
 149  0.750  0.750  0.226- 165 2.34 125 2.35 129 2.35 121 2.35
 150  0.250  0.750  0.226- 166 2.35 126 2.35 122 2.35 130 2.35
 151  0.750  0.250  0.226- 167 2.35 127 2.35 123 2.35 131 2.35
 152  0.250  0.250  0.226- 168 2.35 128 2.35 132 2.35 124 2.35
 153  0.500  0.500  0.282- 137 2.34 177 2.35 173 2.35 181 2.35
 154  0.001  0.500  0.282- 138 2.35 178 2.35 182 2.35 174 2.35
 155  0.501  1.000  0.282- 139 2.34 179 2.35 183 2.35 175 2.35
 156  0.001  1.000  0.282- 140 2.34 180 2.35 184 2.35 176 2.35
 157  0.750  0.500  0.282- 141 2.34 181 2.35 170 2.35 178 2.35
 158  0.250  0.500  0.282- 142 2.34 177 2.35 182 2.35 169 2.35
 159  0.751  1.000  0.282- 143 2.34 183 2.35 180 2.35 172 2.35
 160  0.251  1.000  0.282- 144 2.34 184 2.35 179 2.35 171 2.35
 161  0.501  0.750  0.282- 145 2.35 171 2.35 175 2.35 181 2.35
 162  0.001  0.750  0.282- 146 2.35 172 2.35 176 2.35 182 2.35
 163  0.501  0.250  0.282- 147 2.35 169 2.35 183 2.35 173 2.35
 164  0.000  0.250  0.282- 148 2.35 184 2.35 174 2.35 170 2.35
 165  0.750  0.750  0.282- 149 2.34 175 2.35 178 2.35 172 2.35
 166  0.251  0.750  0.282- 150 2.35 176 2.35 171 2.35 177 2.35
 167  0.750  0.250  0.282- 151 2.35 170 2.35 173 2.35 180 2.35
 168  0.251  0.250  0.282- 152 2.35 174 2.35 179 2.35 169 2.35
 169  0.334  0.333  0.301- 158 2.35 163 2.35 168 2.35 185 2.36
 170  0.833  0.333  0.301- 157 2.35 167 2.35 164 2.35 186 2.36
 171  0.334  0.833  0.301- 161 2.35 160 2.35 166 2.35 187 2.36
 172  0.834  0.833  0.301- 188 2.35 162 2.35 165 2.35 159 2.35
 173  0.584  0.333  0.301- 153 2.35 167 2.35 163 2.35 189 2.36
 174  0.084  0.333  0.301- 190 2.33 168 2.35 154 2.35 164 2.35
 175  0.584  0.833  0.301- 191 2.34 165 2.35 155 2.35 161 2.35
 176  0.084  0.833  0.301- 192 2.34 166 2.35 162 2.35 156 2.35
 177  0.334  0.583  0.301- 158 2.35 153 2.35 166 2.35 193 2.37
 178  0.834  0.583  0.301- 194 2.34 154 2.35 165 2.35 157 2.35
 179  0.334  0.083  0.301- 160 2.35 155 2.35 168 2.35 195 2.35
 180  0.834  0.083  0.301- 196 2.34 159 2.35 156 2.35 167 2.35
 181  0.584  0.583  0.301- 157 2.35 153 2.35 161 2.35 197 2.36
 182  0.084  0.583  0.301- 198 2.34 158 2.35 154 2.35 162 2.35
 183  0.584  0.083  0.301- 199 2.34 159 2.35 155 2.35 163 2.35
 184  0.084  0.083  0.301- 200 2.33 160 2.35 156 2.35 164 2.35
 185  0.335  0.334  0.358- 209 2.34 205 2.35 169 2.36 213 2.37
 186  0.832  0.334  0.358- 214 2.35 206 2.35 170 2.36 210 2.37
 187  0.335  0.831  0.358- 211 2.34 215 2.35 171 2.36 207 2.37
 188  0.834  0.833  0.358- 172 2.35 212 2.35 208 2.35 216 2.35
 189  0.583  0.334  0.358- 202 2.35 213 2.35 210 2.35 173 2.36
 190  0.084  0.332  0.357- 174 2.33 209 2.34 214 2.34 201 2.34
 191  0.583  0.834  0.357- 175 2.34 204 2.34 215 2.35 212 2.35
 192  0.084  0.832  0.358- 211 2.34 176 2.34 216 2.35 203 2.35
 193  0.335  0.583  0.358- 213 2.35 203 2.35 207 2.35 177 2.37
 194  0.834  0.583  0.357- 178 2.34 214 2.35 204 2.35 208 2.35
 195  0.334  0.083  0.358- 201 2.35 179 2.35 215 2.35 205 2.35
 196  0.834  0.083  0.357- 180 2.34 206 2.35 216 2.35 202 2.35
 197  0.583  0.583  0.358- 204 2.35 210 2.35 207 2.35 181 2.36
 198  0.084  0.584  0.358- 209 2.34 182 2.34 208 2.35 203 2.35
 199  0.583  0.083  0.357- 183 2.34 202 2.34 212 2.35 205 2.35
 200  0.084  0.084  0.357- 184 2.33 211 2.34 206 2.34 201 2.35
 201  0.167  0.166  0.376- 190 2.34 200 2.35 195 2.35 217 2.35
 202  0.667  0.166  0.376- 218 2.33 199 2.34 189 2.35 196 2.35
 203  0.168  0.666  0.377- 193 2.35 198 2.35 192 2.35 219 2.36
 204  0.666  0.667  0.376- 220 2.33 191 2.34 197 2.35 194 2.35
 205  0.417  0.166  0.377- 199 2.35 221 2.35 185 2.35 195 2.35
 206  0.917  0.167  0.376- 222 2.34 200 2.34 186 2.35 196 2.35
 207  0.418  0.664  0.379- 197 2.35 193 2.35 187 2.37 223 2.40
 208  0.917  0.666  0.376- 224 2.35 188 2.35 198 2.35 194 2.35
 209  0.167  0.416  0.375- 225 2.32 190 2.34 198 2.34 185 2.34
 210  0.665  0.417  0.378- 197 2.35 189 2.35 186 2.37 226 2.39
 211  0.167  0.917  0.375- 227 2.32 200 2.34 192 2.34 187 2.34
 212  0.667  0.916  0.376- 199 2.35 188 2.35 191 2.35 228 2.35
 213  0.418  0.417  0.378- 189 2.35 193 2.35 185 2.37 229 2.38
 214  0.918  0.416  0.376- 230 2.33 190 2.34 186 2.35 194 2.35
 215  0.417  0.916  0.376- 231 2.35 191 2.35 187 2.35 195 2.35
 216  0.917  0.916  0.376- 232 2.35 188 2.35 192 2.35 196 2.35
 217  0.167  0.167  0.433- 237 2.34 245 2.34 241 2.34 201 2.35
 218  0.666  0.166  0.432- 246 2.33 202 2.33 238 2.34 242 2.34
 219  0.168  0.666  0.434- 243 2.34 203 2.36 239 2.36 247 2.36
 220  0.666  0.669  0.432- 240 2.33 204 2.33 248 2.34 244 2.34
 221  0.417  0.166  0.433- 245 2.34 234 2.34 242 2.34 205 2.35
 222  0.917  0.166  0.432- 246 2.33 206 2.34 233 2.34 241 2.34
 223  0.419  0.662  0.436- 244 2.34 247 2.36 207 2.40 236 2.41
 224  0.917  0.666  0.433- 235 2.34 248 2.34 243 2.34 208 2.35
 225  0.167  0.415  0.431- 209 2.32 239 2.33 235 2.34 245 2.34
 226  0.665  0.418  0.436- 246 2.36 240 2.37 210 2.39 236 2.39
 227  0.166  0.920  0.431- 247 2.32 211 2.32 237 2.34 233 2.34
 228  0.667  0.917  0.433- 248 2.34 238 2.34 234 2.34 212 2.35
 229  0.420  0.418  0.435- 242 2.34 239 2.35 213 2.38 236 2.39
 230  0.919  0.416  0.432- 240 2.33 214 2.33 235 2.34 241 2.34
 231  0.417  0.916  0.433- 237 2.34 234 2.34 244 2.34 215 2.35
 232  0.917  0.917  0.433- 233 2.34 238 2.34 243 2.34 216 2.35
 233  0.001  1.000  0.451-  41 1.50 227 2.34 222 2.34 232 2.34
 234  0.501  1.000  0.451-  42 1.50 221 2.34 228 2.34 231 2.34
 235  0.002  0.499  0.451-  43 1.50 225 2.34 230 2.34 224 2.34
 236  0.503  0.497  0.460-  56 1.13 226 2.39 229 2.39 223 2.41
 237  0.250  1.000  0.451-  44 1.50 227 2.34 217 2.34 231 2.34
 238  0.750  0.000  0.451-  45 1.50 218 2.34 228 2.34 232 2.34
 239  0.250  0.497  0.451-  46 1.49 225 2.33 229 2.35 219 2.36
 240  0.753  0.502  0.450-  47 1.50 230 2.33 220 2.33 226 2.37
 241  1.000  0.250  0.451-  48 1.51 230 2.34 222 2.34 217 2.34
 242  0.501  0.249  0.452-  49 1.50 229 2.34 218 2.34 221 2.34
 243  0.000  0.750  0.451-  50 1.51 224 2.34 232 2.34 219 2.34
 244  0.501  0.750  0.452-  51 1.50 220 2.34 223 2.34 231 2.34
 245  0.250  0.251  0.451-  52 1.50 225 2.34 217 2.34 221 2.34
 246  0.752  0.247  0.451-  53 1.50 218 2.33 222 2.33 226 2.36
 247  0.247  0.757  0.450-  54 1.50 227 2.32 223 2.36 219 2.36
 248  0.751  0.750  0.451-  55 1.50 220 2.34 228 2.34 224 2.34
 
 -----------------------------------------------------------------------------
|                                                                             |
|           W    W    AA    RRRRR   N    N  II  N    N   GGGG   !!!           |
|           W    W   A  A   R    R  NN   N  II  NN   N  G    G  !!!           |
|           W    W  A    A  R    R  N N  N  II  N N  N  G       !!!           |
|           W WW W  AAAAAA  RRRRR   N  N N  II  N  N N  G  GGG   !            |
|           WW  WW  A    A  R   R   N   NN  II  N   NN  G    G                |
|           W    W  A    A  R    R  N    N  II  N    N   GGGG   !!!           |
|                                                                             |
|     The distance between some ions is very small. Please check the          |
|     nearest-neighbor list in the OUTCAR file.                               |
|     I HOPE YOU KNOW WHAT YOU ARE DOING!                                     |
|                                                                             |
 -----------------------------------------------------------------------------


IMPORTANT INFORMATION: All symmetrisations will be switched off!
NOSYMM: (Re-)initialisation of all symmetry stuff for point group C_1.


----------------------------------------------------------------------------------------

                                     Primitive cell                                     

  volume of cell :    8461.3332

  direct lattice vectors                    reciprocal lattice vectors
    15.332987785  0.000000000  0.000000000     0.065218861 -0.037654127  0.000000000
     7.666493893 13.278756938  0.000000000     0.000000000  0.075308254  0.000000000
     0.000000000  0.000000000 41.557994843     0.000000000  0.000000000  0.024062759

  length of vectors
    15.332987785 15.332987785 41.557994843     0.075308254  0.075308254  0.024062759

  position of ions in fractional coordinates (direct lattice)
     0.492377178  0.422446922  0.693423735
     0.403463818  0.487563710  0.676894545
     0.586440808  0.392823667  0.679470222
     0.408576681  0.522466827  0.645772254
     0.502659267  0.491781726  0.631640918
     0.591580491  0.427784018  0.648364776
     0.675669793  0.329493944  0.696226565
     0.769061958  0.301667545  0.682369785
     0.774163296  0.336129355  0.651696746
     0.685948330  0.398667588  0.634643228
     0.309182206  0.519287312  0.691077375
     0.220924202  0.585403441  0.674661280
     0.225928238  0.619798980  0.643952628
     0.319287386  0.588327660  0.629449282
     0.303761910  0.493607951  0.714894213
     0.148413198  0.610279263  0.685813647
     0.157290630  0.671190085  0.631402215
     0.321626959  0.615999678  0.605651695
     0.488437510  0.395791566  0.717265597
     0.691454812  0.424764157  0.610901467
     0.846730643  0.314564836  0.641132232
     0.673199330  0.302164579  0.720066984
     0.837613876  0.253468756  0.695489523
     0.506604274  0.518649451  0.607850790
     0.000390983  0.999835312  0.020601464
     0.500132740  0.999897838  0.020601735
     0.000414679  0.499673754  0.020591883
     0.500308514  0.499780834  0.020588998
     0.250273377  0.999933064  0.020614235
     0.750325859  0.999759793  0.020580584
     0.250303209  0.499830455  0.020585030
     0.750302255  0.499705732  0.020588761
     0.000351910  0.249746919  0.020611973
     0.500333309  0.249799967  0.020581489
     0.000327030  0.749757886  0.020583313
     0.500337601  0.749730945  0.020573916
     0.250295490  0.249681607  0.020610543
     0.750312984  0.249840662  0.020592155
     0.250314146  0.749730825  0.020579834
     0.750334978  0.749820828  0.020568883
     0.004505270  0.998915851  0.486827373
     0.500616252  0.999533296  0.487584829
     0.003693268  0.496569961  0.486781120
     0.247975335  0.997892618  0.487007231
     0.749955594  0.001704753  0.487325132
     0.241911963  0.486322761  0.486289501
     0.761446297  0.510691464  0.485441059
     0.998476505  0.251733571  0.487047344
     0.504690230  0.244441211  0.488030463
     0.997943103  0.751043558  0.487557650
     0.506158173  0.751484036  0.488109857
     0.248272225  0.253854841  0.487056673
     0.756550670  0.233419731  0.486418933
     0.235919595  0.774844885  0.485855192
     0.749754012  0.748512566  0.487257123
     0.502811857  0.496654923  0.487257123
     0.000329457  0.999792874  0.056801304
     0.500277638  0.999809384  0.056801502
     0.000333108  0.499763846  0.056791555
     0.500313818  0.499782205  0.056788687
     0.250310689  0.999812961  0.056813903
     0.750319719  0.999776006  0.056780327
     0.250313520  0.499795347  0.056784756
     0.750310957  0.499767631  0.056788500
     0.000318051  0.249777421  0.056811452
     0.500323713  0.249785557  0.056781143
     0.000314644  0.749777973  0.056782931
     0.500325441  0.749768853  0.056773555
     0.250313193  0.249763131  0.056810036
     0.750312507  0.249794334  0.056791838
     0.250316799  0.749767482  0.056779422
     0.750320256  0.749795496  0.056768443
     0.833652973  0.833112955  0.075220548
     0.333655775  0.833101094  0.075206697
     0.833647072  0.333115101  0.075239465
     0.333651125  0.333123654  0.075212382
     0.083655499  0.833104193  0.075218521
     0.583654404  0.833109498  0.075205788
     0.083648346  0.333112478  0.075246148
     0.583644331  0.333121121  0.075227596
     0.833641708  0.083120577  0.075217716
     0.333640486  0.083126351  0.075272113
     0.833640575  0.583126724  0.075202011
     0.333653599  0.583114147  0.075228721
     0.083652385  0.083124109  0.075256638
     0.583652258  0.083121717  0.075218178
     0.083651699  0.583115995  0.075224787
     0.583642364  0.583117604  0.075225279
     0.833655298  0.833111048  0.131698415
     0.333670020  0.833088696  0.131681964
     0.833652914  0.333113521  0.131717145
     0.333665848  0.333117664  0.131687343
     0.083641760  0.833099127  0.131695181
     0.583676875  0.833096325  0.131681576
     0.083615132  0.333165854  0.131725624
     0.583647013  0.333108813  0.131705075
     0.833631992  0.083113700  0.131693453
     0.333692312  0.083106466  0.131752893
     0.833632231  0.583148003  0.131677061
     0.333659738  0.583108306  0.131706685
     0.083627075  0.083107404  0.131736577
     0.583668172  0.083116107  0.131694496
     0.083634332  0.583131134  0.131702736
     0.583648026  0.583126664  0.131703153
     0.666997313  0.666449666  0.150571689
     0.166990951  0.666439295  0.150577992
     0.666985154  0.166447908  0.150583580
     0.166960895  0.166480228  0.150592893
     0.916967511  0.666443229  0.150577411
     0.416981697  0.666454971  0.150582612
     0.916938663  0.166439339  0.150593877
     0.417026371  0.166494399  0.150589138
     0.666980743  0.916446328  0.150565371
     0.167019635  0.916388094  0.150566518
     0.666970074  0.416457653  0.150575981
     0.167015582  0.416460574  0.150573865
     0.916980088  0.916458130  0.150573015
     0.417033941  0.916364610  0.150571495
     0.916923881  0.416529238  0.150581062
     0.416979998  0.416440219  0.150581673
     0.666912794  0.666502118  0.207054019
     0.166913837  0.666490078  0.207059070
     0.666903555  0.166505799  0.207066059
     0.166840881  0.166608214  0.207081690
     0.916925311  0.666498363  0.207059070
     0.416924894  0.666478813  0.207065329
     0.916924834  0.166502789  0.207074717
     0.416964442  0.166514084  0.207067505
     0.666917741  0.916482627  0.207042471
     0.166949511  0.916440427  0.207046315
     0.666916192  0.416489273  0.207054511
     0.166920587  0.416475743  0.207055703
     0.916948616  0.916463017  0.207052335
     0.417010188  0.916404307  0.207048252
     0.916938722  0.416491538  0.207060754
     0.416920215  0.416479498  0.207063407
     0.500279784  0.499793768  0.225880727
     0.000286894  0.499823153  0.225881204
     0.500286341  0.999800682  0.225855216
     0.000320870  0.999765992  0.225860998
     0.750281632  0.499817878  0.225854263
     0.250254780  0.499799043  0.225867972
     0.750288427  0.999772072  0.225843668
     0.250321954  0.999811232  0.225778937
     0.500318646  0.749731302  0.225913689
     0.000284064  0.749798358  0.225892037
     0.500294030  0.249847934  0.225932941
     0.000167071  0.249892369  0.225949064
     0.750268996  0.749823213  0.225866526
     0.250286639  0.749772727  0.225893244
     0.750254452  0.249828354  0.225887939
     0.250348657  0.249823079  0.225897804
     0.500493228  0.499630362  0.282306224
     0.000507458  0.499689847  0.282308608
     0.500513256  0.999625921  0.282269627
     0.000590424  0.999563456  0.282277822
     0.750462234  0.499707162  0.282266974
     0.250444770  0.499655217  0.282285511
     0.750511169  0.999576986  0.282251120
     0.250602037  0.999607146  0.282152683
     0.500567079  0.749503136  0.282355547
     0.000500851  0.749638677  0.282323539
     0.500538766  0.249743253  0.282382488
     0.000225332  0.249850199  0.282402933
     0.750461936  0.749692917  0.282286972
     0.250518024  0.749579966  0.282324493
     0.750410974  0.249707103  0.282316566
     0.250663519  0.249703348  0.282328576
     0.333911359  0.333138108  0.301228911
     0.833405077  0.333254099  0.301238060
     0.333805948  0.833063662  0.301059276
     0.833840191  0.832952976  0.301133633
     0.583872318  0.333105743  0.301240712
     0.083986245  0.332956612  0.301087201
     0.583828926  0.832981586  0.301119924
     0.083885722  0.832911551  0.301156968
     0.333845645  0.582839966  0.301129788
     0.833818555  0.583026707  0.301096827
     0.333845109  0.082899325  0.301046044
     0.833882093  0.082883514  0.301022708
     0.583984017  0.582734525  0.301185846
     0.083862446  0.582975507  0.301169962
     0.583900511  0.082907610  0.301083088
     0.084068529  0.082895562  0.300980359
     0.335213691  0.333535790  0.357942194
     0.831727684  0.334045798  0.357971042
     0.335395783  0.830682814  0.357942015
     0.833791375  0.833132029  0.357583940
     0.583404303  0.333877742  0.357941061
     0.084150590  0.332154393  0.357051879
     0.583414555  0.833837450  0.357413024
     0.083954453  0.832338691  0.357573390
     0.334570050  0.582698941  0.358086765
     0.833785176  0.583328843  0.357432544
     0.333943814  0.082872719  0.357556730
     0.833716869  0.082987994  0.357425213
     0.583118141  0.582746446  0.357974857
     0.084006958  0.583523333  0.357564479
     0.583482325  0.082853839  0.357414842
     0.083576463  0.084176458  0.357015550
     0.167388305  0.166264638  0.376383990
     0.666587055  0.166345283  0.375882387
     0.167827979  0.665972173  0.377085656
     0.666472256  0.667175949  0.375703394
     0.417097807  0.166450024  0.376503885
     0.917234480  0.166508898  0.375925660
     0.418227613  0.664141118  0.378688812
     0.917294383  0.666422307  0.376367778
     0.167073935  0.415832549  0.375140607
     0.665256262  0.417405635  0.378229767
     0.166932136  0.917404234  0.374840409
     0.667198300  0.916472077  0.376472980
     0.418167204  0.417173445  0.378132224
     0.917683244  0.415965498  0.375549793
     0.417024821  0.916160941  0.376488000
     0.917229235  0.916404724  0.376374155
     0.167115182  0.166834190  0.432889611
     0.666413844  0.166155577  0.432045877
     0.168013990  0.666034520  0.433828652
     0.666324794  0.668540835  0.431813747
     0.417390019  0.166452020  0.433000714
     0.917441964  0.166166946  0.432184398
     0.419353038  0.662200391  0.436360419
     0.917425156  0.666236043  0.432823271
     0.167074472  0.415480047  0.430994391
     0.665333927  0.417703986  0.435620129
     0.165778935  0.919967830  0.430618107
     0.667322755  0.916666031  0.432965338
     0.419705242  0.417592496  0.435362965
     0.919258296  0.415913343  0.431635648
     0.417379081  0.916008890  0.432971716
     0.917279065  0.916523874  0.432831734
     0.001251083  0.999822259  0.450642496
     0.500535190  0.999658465  0.451384395
     0.002026595  0.498949349  0.450589716
     0.502811849  0.496654838  0.460066676
     0.250136971  0.999909699  0.450832427
     0.750483811  0.000376821  0.451127470
     0.249811113  0.496533602  0.450801730
     0.753375411  0.502418995  0.449660391
     0.999873877  0.250183254  0.450823903
     0.501229644  0.248931870  0.451865464
     0.000293174  0.749923170  0.451336235
     0.501439273  0.749747574  0.451967537
     0.250178754  0.250709504  0.450873196
     0.751579225  0.246621966  0.450677872
     0.247489780  0.756548941  0.450239390
     0.750604331  0.749786079  0.451063514

  ion indices of the primitive-cell ions
   primitive index   ion index
                 1           1
                 2           2
                 3           3
                 4           4
                 5           5
                 6           6
                 7           7
                 8           8
                 9           9
                10          10
                11          11
                12          12
                13          13
                14          14
                15          15
                16          16
                17          17
                18          18
                19          19
                20          20
                21          21
                22          22
                23          23
                24          24
                25          25
                26          26
                27          27
                28          28
                29          29
                30          30
                31          31
                32          32
                33          33
                34          34
                35          35
                36          36
                37          37
                38          38
                39          39
                40          40
                41          41
                42          42
                43          43
                44          44
                45          45
                46          46
                47          47
                48          48
                49          49
                50          50
                51          51
                52          52
                53          53
                54          54
                55          55
                56          56
                57          57
                58          58
                59          59
                60          60
                61          61
                62          62
                63          63
                64          64
                65          65
                66          66
                67          67
                68          68
                69          69
                70          70
                71          71
                72          72
                73          73
                74          74
                75          75
                76          76
                77          77
                78          78
                79          79
                80          80
                81          81
                82          82
                83          83
                84          84
                85          85
                86          86
                87          87
                88          88
                89          89
                90          90
                91          91
                92          92
                93          93
                94          94
                95          95
                96          96
                97          97
                98          98
                99          99
               100         100
               101         101
               102         102
               103         103
               104         104
               105         105
               106         106
               107         107
               108         108
               109         109
               110         110
               111         111
               112         112
               113         113
               114         114
               115         115
               116         116
               117         117
               118         118
               119         119
               120         120
               121         121
               122         122
               123         123
               124         124
               125         125
               126         126
               127         127
               128         128
               129         129
               130         130
               131         131
               132         132
               133         133
               134         134
               135         135
               136         136
               137         137
               138         138
               139         139
               140         140
               141         141
               142         142
               143         143
               144         144
               145         145
               146         146
               147         147
               148         148
               149         149
               150         150
               151         151
               152         152
               153         153
               154         154
               155         155
               156         156
               157         157
               158         158
               159         159
               160         160
               161         161
               162         162
               163         163
               164         164
               165         165
               166         166
               167         167
               168         168
               169         169
               170         170
               171         171
               172         172
               173         173
               174         174
               175         175
               176         176
               177         177
               178         178
               179         179
               180         180
               181         181
               182         182
               183         183
               184         184
               185         185
               186         186
               187         187
               188         188
               189         189
               190         190
               191         191
               192         192
               193         193
               194         194
               195         195
               196         196
               197         197
               198         198
               199         199
               200         200
               201         201
               202         202
               203         203
               204         204
               205         205
               206         206
               207         207
               208         208
               209         209
               210         210
               211         211
               212         212
               213         213
               214         214
               215         215
               216         216
               217         217
               218         218
               219         219
               220         220
               221         221
               222         222
               223         223
               224         224
               225         225
               226         226
               227         227
               228         228
               229         229
               230         230
               231         231
               232         232
               233         233
               234         234
               235         235
               236         236
               237         237
               238         238
               239         239
               240         240
               241         241
               242         242
               243         243
               244         244
               245         245
               246         246
               247         247
               248         248

----------------------------------------------------------------------------------------

 
 
 KPOINTS: auto                                    

Automatic generation of k-mesh.
 Grid dimensions read from file:
 generate k-points for:    9    9    1

 Generating k-lattice:

  Cartesian coordinates                     Fractional coordinates (reciprocal lattice)
     0.007246540 -0.004183792  0.000000000     0.111111111  0.000000000  0.000000000
     0.000000000  0.008367584  0.000000000     0.000000000  0.111111111  0.000000000
     0.000000000  0.000000000  0.024062759     0.000000000  0.000000000  1.000000000

  Length of vectors
     0.008367584  0.008367584  0.024062759

  Shift w.r.t. Gamma in fractional coordinates (k-lattice)
     0.000000000  0.000000000  0.000000000

 TETIRR: Found    240 inequivalent tetrahedra from      486
 
 Subroutine IBZKPT returns following result:
 ===========================================
 
 Found     41 irreducible k-points:
 
 Following reciprocal coordinates:
            Coordinates               Weight
  0.000000  0.000000  0.000000      1.000000
  0.111111 -0.000000  0.000000      2.000000
  0.111111  0.111111  0.000000      2.000000
  0.000000  0.111111  0.000000      2.000000
  0.222222  0.000000  0.000000      2.000000
  0.222222  0.222222  0.000000      2.000000
  0.000000  0.222222  0.000000      2.000000
  0.333333 -0.000000  0.000000      2.000000
  0.333333  0.333333  0.000000      2.000000
  0.000000  0.333333  0.000000      2.000000
  0.444444  0.000000  0.000000      2.000000
  0.444444  0.444444  0.000000      2.000000
  0.000000  0.444444  0.000000      2.000000
  0.222222  0.111111  0.000000      2.000000
  0.111111  0.222222  0.000000      2.000000
 -0.111111  0.111111  0.000000      2.000000
  0.333333  0.111111  0.000000      2.000000
  0.222222  0.333333  0.000000      2.000000
 -0.111111  0.222222  0.000000      2.000000
  0.222222 -0.111111  0.000000      2.000000
 -0.111111 -0.333333  0.000000      2.000000
 -0.333333 -0.222222  0.000000      2.000000
  0.444444  0.111111  0.000000      2.000000
  0.333333  0.444444  0.000000      2.000000
 -0.111111  0.333333  0.000000      2.000000
  0.333333 -0.111111  0.000000      2.000000
 -0.111111 -0.444444  0.000000      2.000000
 -0.444444 -0.333333  0.000000      2.000000
 -0.444444  0.111111  0.000000      2.000000
  0.444444 -0.444444  0.000000      2.000000
 -0.111111  0.444444  0.000000      2.000000
  0.444444  0.222222  0.000000      2.000000
  0.222222  0.444444  0.000000      2.000000
 -0.222222  0.222222  0.000000      2.000000
 -0.444444  0.222222  0.000000      2.000000
  0.333333 -0.444444  0.000000      2.000000
 -0.222222  0.333333  0.000000      2.000000
  0.333333 -0.222222  0.000000      2.000000
 -0.222222  0.444444  0.000000      2.000000
  0.444444 -0.333333  0.000000      2.000000
 -0.333333  0.333333  0.000000      2.000000
 
 Following cartesian coordinates:
            Coordinates               Weight
  0.000000  0.000000  0.000000      1.000000
  0.007247 -0.004184  0.000000      2.000000
  0.007247  0.004184  0.000000      2.000000
  0.000000  0.008368  0.000000      2.000000
  0.014493 -0.008368  0.000000      2.000000
  0.014493  0.008368  0.000000      2.000000
  0.000000  0.016735  0.000000      2.000000
  0.021740 -0.012551  0.000000      2.000000
  0.021740  0.012551  0.000000      2.000000
  0.000000  0.025103  0.000000      2.000000
  0.028986 -0.016735  0.000000      2.000000
  0.028986  0.016735  0.000000      2.000000
  0.000000  0.033470  0.000000      2.000000
  0.014493 -0.000000  0.000000      2.000000
  0.007247  0.012551  0.000000      2.000000
 -0.007247  0.012551  0.000000      2.000000
  0.021740 -0.004184  0.000000      2.000000
  0.014493  0.016735  0.000000      2.000000
 -0.007247  0.020919  0.000000      2.000000
  0.014493 -0.016735  0.000000      2.000000
 -0.007247 -0.020919  0.000000      2.000000
 -0.021740 -0.004184  0.000000      2.000000
  0.028986 -0.008368  0.000000      2.000000
  0.021740  0.020919  0.000000      2.000000
 -0.007247  0.029287  0.000000      2.000000
  0.021740 -0.020919  0.000000      2.000000
 -0.007247 -0.029287  0.000000      2.000000
 -0.028986 -0.008368  0.000000      2.000000
 -0.028986  0.025103  0.000000      2.000000
  0.028986 -0.050206  0.000000      2.000000
 -0.007247  0.037654  0.000000      2.000000
  0.028986 -0.000000  0.000000      2.000000
  0.014493  0.025103  0.000000      2.000000
 -0.014493  0.025103  0.000000      2.000000
 -0.028986  0.033470  0.000000      2.000000
  0.021740 -0.046022  0.000000      2.000000
 -0.014493  0.033470  0.000000      2.000000
  0.021740 -0.029287  0.000000      2.000000
 -0.014493  0.041838  0.000000      2.000000
  0.028986 -0.041838  0.000000      2.000000
 -0.021740  0.037654  0.000000      2.000000
 


--------------------------------------------------------------------------------------------------------




 Dimension of arrays:
   k-points           NKPTS =     41   k-points in BZ     NKDIM =     41   number of bands    NBANDS=    640
   number of dos      NEDOS =    301   number of ions     NIONS =    248
   non local maximal  LDIM  =      6   non local SUM 2l+1 LMDIM =     18
   total plane-waves  NPLWV = ******
   max r-space proj   IRMAX =      1   max aug-charges    IRDMAX=  26929
   dimension x,y,z NGX =   120 NGY =  120 NGZ =  320
   dimension x,y,z NGXF=   240 NGYF=  240 NGZF=  640
   support grid    NGXF=   240 NGYF=  240 NGZF=  640
   ions per type =              14  42 192
   NGX,Y,Z   is equivalent  to a cutoff of  13.01, 13.01, 12.80 a.u.
   NGXF,Y,Z  is equivalent  to a cutoff of  26.02, 26.02, 25.60 a.u.

 SYSTEM =  Si_surface_6layer                       
 POSCAR =  4x4_si_surface_from540eV_1x1x1conv      

 Startparameter for this run:
   NWRITE =      2    write-flag & timer
   PREC   = accura    normal or accurate (medium, high low for compatibility)
   ISTART =      0    job   : 0-new  1-cont  2-samecut
   ICHARG =      2    charge: 1-file 2-atom 10-const
   ISPIN  =      1    spin polarized calculation?
   LNONCOLLINEAR =      F non collinear calculations
   LSORBIT =      F    spin-orbit coupling
   INIWAV =      1    electr: 0-lowe 1-rand  2-diag
   LASPH  =      F    aspherical Exc in radial PAW
 Electronic Relaxation 1
   ENCUT  =  540.0 eV  39.69 Ry    6.30 a.u.  29.05 29.05 78.74*2*pi/ulx,y,z
   ENINI  =  540.0     initial cutoff
   ENAUG  =  644.9 eV  augmentation charge cutoff
   NELM   =     60;   NELMIN=  5; NELMDL= -5     # of ELM steps 
   EDIFF  = 0.1E-06   stopping-criterion for ELM
   LREAL  =      F    real-space projection
   NLSPLINE    = F    spline interpolate recip. space projectors
   LCOMPAT=      F    compatible to vasp.4.4
   GGA_COMPAT  = T    GGA compatible to vasp.4.4-vasp.4.6
   LMAXPAW     = -100 max onsite density
   LMAXMIX     =    2 max onsite mixed and CHGCAR
   VOSKOWN=      0    Vosko Wilk Nusair interpolation
   ROPT   =    0.00000   0.00000   0.00000
 Ionic relaxation
   EDIFFG = -.9E-02   stopping-criterion for IOM
   NSW    =      1    number of steps for IOM
   NBLOCK =      1;   KBLOCK =      1    inner block; outer block 
   IBRION =      2    ionic relax: 0-MD 1-quasi-New 2-CG
   NFREE  =      1    steps in history (QN), initial steepest desc. (CG)
   ISIF   =      2    stress and relaxation
   IWAVPR =     11    prediction:  0-non 1-charg 2-wave 3-comb
   ISYM   =      0    0-nonsym 1-usesym 2-fastsym
   LCORR  =      T    Harris-Foulkes like correction to forces

   POTIM  = 0.5000    time-step for ionic-motion
   TEIN   =    0.0    initial temperature
   TEBEG  =    0.0;   TEEND  =   0.0 temperature during run
   SMASS  =  -3.00    Nose mass-parameter (am)
   estimated Nose-frequenzy (Omega)   =  0.10E-29 period in steps = 0.13E+47 mass=  -0.537E-26a.u.
   SCALEE = 1.0000    scale energy and forces
   NPACO  =    256;   APACO  = 10.0  distance and # of slots for P.C.
   PSTRESS=    0.0 pullay stress

  Mass of Ions in am
   POMASS =  12.01  1.00 28.09
  Ionic Valenz
   ZVAL   =   4.00  1.00  4.00
  Atomic Wigner-Seitz radii
   RWIGS  =  -1.00 -1.00 -1.00
  virtual crystal weights 
   VCA    =   1.00  1.00  1.00
   NELECT =     866.0000    total number of electrons
   NUPDOWN=      -1.0000    fix difference up-down

 DOS related values:
   EMIN   =  10.00;   EMAX   =-10.00  energy-range for DOS
   EFERMI =   0.00
   ISMEAR =    -5;   SIGMA  =   0.10  broadening in eV -4-tet -1-fermi 0-gaus

 Electronic relaxation 2 (details)
   IALGO  =     38    algorithm
   LDIAG  =      T    sub-space diagonalisation (order eigenvalues)
   LSUBROT=      F    optimize rotation matrix (better conditioning)
   TURBO    =      0    0=normal 1=particle mesh
   IRESTART =      0    0=no restart 2=restart with 2 vectors
   NREBOOT  =      0    no. of reboots
   NMIN     =      0    reboot dimension
   EREF     =   0.00    reference energy to select bands
   IMIX   =      4    mixing-type and parameters
     AMIX     =   0.40;   BMIX     =  1.00
     AMIX_MAG =   1.60;   BMIX_MAG =  1.00
     AMIN     =   0.10
     WC   =   100.;   INIMIX=   1;  MIXPRE=   1;  MAXMIX= -45

 Intra band minimization:
   WEIMIN = 0.0010     energy-eigenvalue tresh-hold
   EBREAK =  0.39E-10  absolut break condition
   DEPER  =   0.30     relativ break condition  

   TIME   =   0.40     timestep for ELM

  volume/ion in A,a.u.               =      34.12       230.24
  Fermi-wavevector in a.u.,A,eV,Ry     =   0.765775  1.447105  7.978611  0.586411
  Thomas-Fermi vector in A             =   1.865969
 
 Write flags
   LWAVE        =      T    write WAVECAR
   LDOWNSAMPLE  =      F    k-point downsampling of WAVECAR
   LCHARG       =      T    write CHGCAR
   LVTOT        =      F    write LOCPOT, total local potential
   LVHAR        =      F    write LOCPOT, Hartree potential only
   LELF         =      F    write electronic localiz. function (ELF)
   LORBIT       =      0    0 simple, 1 ext, 2 COOP (PROOUT), +10 PAW based schemes


 Dipole corrections
   LMONO  =      F    monopole corrections only (constant potential shift)
   LDIPOL =      F    correct potential (dipole corrections)
   IDIPOL =      3    1-x, 2-y, 3-z, 4-all directions 
   EPSILON=  1.0000000 bulk dielectric constant

 Exchange correlation treatment:
   GGA     =    --    GGA type
   LEXCH   =     8    internal setting for exchange type
   LIBXC   =     F    Libxc                    
   VOSKOWN =     0    Vosko Wilk Nusair interpolation
   LHFCALC =     F    Hartree Fock is set to
   LHFONE  =     F    Hartree Fock one center treatment
   AEXX    =    0.0000 exact exchange contribution

 Linear response parameters
   LEPSILON=     F    determine dielectric tensor
   LRPA    =     F    only Hartree local field effects (RPA)
   LNABLA  =     F    use nabla operator in PAW spheres
   LVEL    =     F    velocity operator in full k-point grid
   CSHIFT  =0.1000    complex shift for real part using Kramers Kronig
   OMEGAMAX=  -1.0    maximum frequency
   DEG_THRESHOLD= 0.2000000E-02 threshold for treating states as degnerate
   RTIME   =   -0.100 relaxation time in fs
  (WPLASMAI=    0.000 imaginary part of plasma frequency in eV, 0.658/RTIME)
   DFIELD  = 0.0000000 0.0000000 0.0000000 field for delta impulse in time
 
  Optional k-point grid parameters
   LKPOINTS_OPT  =     F    use optional k-point grid
   KPOINTS_OPT_MODE=     1    mode for optional k-point grid
 
 Orbital magnetization related:
   ORBITALMAG=     F  switch on orbital magnetization
   LCHIMAG   =     F  perturbation theory with respect to B field
   DQ        =  0.001000  dq finite difference perturbation B field
   LLRAUG    =     F  two centre corrections for induced B field



--------------------------------------------------------------------------------------------------------


 conjugate gradient relaxation of ions
 charge density and potential will be updated during run
 non-spin polarized calculation
 Variant of blocked Davidson
 Davidson routine will perform the subspace rotation
 perform sub-space diagonalisation
    after iterative eigenvector-optimisation
 modified Broyden-mixing scheme, WC =      100.0
 initial mixing is a Kerker type mixing with AMIX =  0.4000 and BMIX =      1.0000
 Hartree-type preconditioning will be used
 using additional bands          207
 reciprocal scheme for non local part
 use partial core corrections
 calculate Harris-corrections to forces 
   (improved forces if not selfconsistent)
 use gradient corrections 
 use of overlap-Matrix (Vanderbilt PP)
 Fermi weights with tetrahedron method with Bloechl corrections


--------------------------------------------------------------------------------------------------------


  energy-cutoff  :      540.00
  volume of cell :     8461.33
      direct lattice vectors                 reciprocal lattice vectors
    15.332987785  0.000000000  0.000000000     0.065218861 -0.037654127  0.000000000
     7.666493893 13.278756938  0.000000000     0.000000000  0.075308254  0.000000000
     0.000000000  0.000000000 41.557994843     0.000000000  0.000000000  0.024062759

  length of vectors
    15.332987785 15.332987785 41.557994843     0.075308254  0.075308254  0.024062759


 
 k-points in units of 2pi/SCALE and weight: auto                                    
   0.00000000  0.00000000  0.00000000       0.012
   0.00724654 -0.00418379  0.00000000       0.025
   0.00724654  0.00418379  0.00000000       0.025
   0.00000000  0.00836758  0.00000000       0.025
   0.01449308 -0.00836758  0.00000000       0.025
   0.01449308  0.00836758  0.00000000       0.025
   0.00000000  0.01673517  0.00000000       0.025
   0.02173962 -0.01255138  0.00000000       0.025
   0.02173962  0.01255138  0.00000000       0.025
   0.00000000  0.02510275  0.00000000       0.025
   0.02898616 -0.01673517  0.00000000       0.025
   0.02898616  0.01673517  0.00000000       0.025
   0.00000000  0.03347034  0.00000000       0.025
   0.01449308 -0.00000000  0.00000000       0.025
   0.00724654  0.01255138  0.00000000       0.025
  -0.00724654  0.01255138  0.00000000       0.025
   0.02173962 -0.00418379  0.00000000       0.025
   0.01449308  0.01673517  0.00000000       0.025
  -0.00724654  0.02091896  0.00000000       0.025
   0.01449308 -0.01673517  0.00000000       0.025
  -0.00724654 -0.02091896  0.00000000       0.025
  -0.02173962 -0.00418379  0.00000000       0.025
   0.02898616 -0.00836758  0.00000000       0.025
   0.02173962  0.02091896  0.00000000       0.025
  -0.00724654  0.02928654  0.00000000       0.025
   0.02173962 -0.02091896  0.00000000       0.025
  -0.00724654 -0.02928654  0.00000000       0.025
  -0.02898616 -0.00836758  0.00000000       0.025
  -0.02898616  0.02510275  0.00000000       0.025
   0.02898616 -0.05020550  0.00000000       0.025
  -0.00724654  0.03765413  0.00000000       0.025
   0.02898616 -0.00000000  0.00000000       0.025
   0.01449308  0.02510275  0.00000000       0.025
  -0.01449308  0.02510275  0.00000000       0.025
  -0.02898616  0.03347034  0.00000000       0.025
   0.02173962 -0.04602171  0.00000000       0.025
  -0.01449308  0.03347034  0.00000000       0.025
   0.02173962 -0.02928654  0.00000000       0.025
  -0.01449308  0.04183792  0.00000000       0.025
   0.02898616 -0.04183792  0.00000000       0.025
  -0.02173962  0.03765413  0.00000000       0.025
 
 k-points in reciprocal lattice and weights: auto                                    
   0.00000000  0.00000000  0.00000000       0.012
   0.11111111 -0.00000000  0.00000000       0.025
   0.11111111  0.11111111  0.00000000       0.025
   0.00000000  0.11111111  0.00000000       0.025
   0.22222222  0.00000000  0.00000000       0.025
   0.22222222  0.22222222  0.00000000       0.025
   0.00000000  0.22222222  0.00000000       0.025
   0.33333333 -0.00000000  0.00000000       0.025
   0.33333333  0.33333333  0.00000000       0.025
   0.00000000  0.33333333  0.00000000       0.025
   0.44444444  0.00000000  0.00000000       0.025
   0.44444444  0.44444444  0.00000000       0.025
   0.00000000  0.44444444  0.00000000       0.025
   0.22222222  0.11111111  0.00000000       0.025
   0.11111111  0.22222222  0.00000000       0.025
  -0.11111111  0.11111111  0.00000000       0.025
   0.33333333  0.11111111  0.00000000       0.025
   0.22222222  0.33333333  0.00000000       0.025
  -0.11111111  0.22222222  0.00000000       0.025
   0.22222222 -0.11111111  0.00000000       0.025
  -0.11111111 -0.33333333  0.00000000       0.025
  -0.33333333 -0.22222222  0.00000000       0.025
   0.44444444  0.11111111  0.00000000       0.025
   0.33333333  0.44444444  0.00000000       0.025
  -0.11111111  0.33333333  0.00000000       0.025
   0.33333333 -0.11111111  0.00000000       0.025
  -0.11111111 -0.44444444  0.00000000       0.025
  -0.44444444 -0.33333333  0.00000000       0.025
  -0.44444444  0.11111111  0.00000000       0.025
   0.44444444 -0.44444444  0.00000000       0.025
  -0.11111111  0.44444444  0.00000000       0.025
   0.44444444  0.22222222  0.00000000       0.025
   0.22222222  0.44444444  0.00000000       0.025
  -0.22222222  0.22222222  0.00000000       0.025
  -0.44444444  0.22222222  0.00000000       0.025
   0.33333333 -0.44444444  0.00000000       0.025
  -0.22222222  0.33333333  0.00000000       0.025
   0.33333333 -0.22222222  0.00000000       0.025
  -0.22222222  0.44444444  0.00000000       0.025
   0.44444444 -0.33333333  0.00000000       0.025
  -0.33333333  0.33333333  0.00000000       0.025
 
 position of ions in fractional coordinates (direct lattice) 
   0.49237718  0.42244692  0.69342373
   0.40346382  0.48756371  0.67689454
   0.58644081  0.39282367  0.67947022
   0.40857668  0.52246683  0.64577225
   0.50265927  0.49178173  0.63164092
   0.59158049  0.42778402  0.64836478
   0.67566979  0.32949394  0.69622657
   0.76906196  0.30166754  0.68236978
   0.77416330  0.33612935  0.65169675
   0.68594833  0.39866759  0.63464323
   0.30918221  0.51928731  0.69107738
   0.22092420  0.58540344  0.67466128
   0.22592824  0.61979898  0.64395263
   0.31928739  0.58832766  0.62944928
   0.30376191  0.49360795  0.71489421
   0.14841320  0.61027926  0.68581365
   0.15729063  0.67119009  0.63140222
   0.32162696  0.61599968  0.60565169
   0.48843751  0.39579157  0.71726560
   0.69145481  0.42476416  0.61090147
   0.84673064  0.31456484  0.64113223
   0.67319933  0.30216458  0.72006698
   0.83761388  0.25346876  0.69548952
   0.50660427  0.51864945  0.60785079
   0.00039098  0.99983531  0.02060146
   0.50013274  0.99989784  0.02060173
   0.00041468  0.49967375  0.02059188
   0.50030851  0.49978083  0.02058900
   0.25027338  0.99993306  0.02061423
   0.75032586  0.99975979  0.02058058
   0.25030321  0.49983045  0.02058503
   0.75030226  0.49970573  0.02058876
   0.00035191  0.24974692  0.02061197
   0.50033331  0.24979997  0.02058149
   0.00032703  0.74975789  0.02058331
   0.50033760  0.74973094  0.02057392
   0.25029549  0.24968161  0.02061054
   0.75031298  0.24984066  0.02059215
   0.25031415  0.74973083  0.02057983
   0.75033498  0.74982083  0.02056888
   0.00450527  0.99891585  0.48682737
   0.50061625  0.99953330  0.48758483
   0.00369327  0.49656996  0.48678112
   0.24797533  0.99789262  0.48700723
   0.74995559  0.00170475  0.48732513
   0.24191196  0.48632276  0.48628950
   0.76144630  0.51069146  0.48544106
   0.99847651  0.25173357  0.48704734
   0.50469023  0.24444121  0.48803046
   0.99794310  0.75104356  0.48755765
   0.50615817  0.75148404  0.48810986
   0.24827223  0.25385484  0.48705667
   0.75655067  0.23341973  0.48641893
   0.23591959  0.77484488  0.48585519
   0.74975401  0.74851257  0.48725712
   0.50281186  0.49665492  0.48725712
   0.00032946  0.99979287  0.05680130
   0.50027764  0.99980938  0.05680150
   0.00033311  0.49976385  0.05679156
   0.50031382  0.49978220  0.05678869
   0.25031069  0.99981296  0.05681390
   0.75031972  0.99977601  0.05678033
   0.25031352  0.49979535  0.05678476
   0.75031096  0.49976763  0.05678850
   0.00031805  0.24977742  0.05681145
   0.50032371  0.24978556  0.05678114
   0.00031464  0.74977797  0.05678293
   0.50032544  0.74976885  0.05677355
   0.25031319  0.24976313  0.05681004
   0.75031251  0.24979433  0.05679184
   0.25031680  0.74976748  0.05677942
   0.75032026  0.74979550  0.05676844
   0.83365297  0.83311296  0.07522055
   0.33365577  0.83310109  0.07520670
   0.83364707  0.33311510  0.07523946
   0.33365113  0.33312365  0.07521238
   0.08365550  0.83310419  0.07521852
   0.58365440  0.83310950  0.07520579
   0.08364835  0.33311248  0.07524615
   0.58364433  0.33312112  0.07522760
   0.83364171  0.08312058  0.07521772
   0.33364049  0.08312635  0.07527211
   0.83364058  0.58312672  0.07520201
   0.33365360  0.58311415  0.07522872
   0.08365238  0.08312411  0.07525664
   0.58365226  0.08312172  0.07521818
   0.08365170  0.58311599  0.07522479
   0.58364236  0.58311760  0.07522528
   0.83365530  0.83311105  0.13169841
   0.33367002  0.83308870  0.13168196
   0.83365291  0.33311352  0.13171715
   0.33366585  0.33311766  0.13168734
   0.08364176  0.83309913  0.13169518
   0.58367687  0.83309633  0.13168158
   0.08361513  0.33316585  0.13172562
   0.58364701  0.33310881  0.13170508
   0.83363199  0.08311370  0.13169345
   0.33369231  0.08310647  0.13175289
   0.83363223  0.58314800  0.13167706
   0.33365974  0.58310831  0.13170668
   0.08362707  0.08310740  0.13173658
   0.58366817  0.08311611  0.13169450
   0.08363433  0.58313113  0.13170274
   0.58364803  0.58312666  0.13170315
   0.66699731  0.66644967  0.15057169
   0.16699095  0.66643929  0.15057799
   0.66698515  0.16644791  0.15058358
   0.16696090  0.16648023  0.15059289
   0.91696751  0.66644323  0.15057741
   0.41698170  0.66645497  0.15058261
   0.91693866  0.16643934  0.15059388
   0.41702637  0.16649440  0.15058914
   0.66698074  0.91644633  0.15056537
   0.16701964  0.91638809  0.15056652
   0.66697007  0.41645765  0.15057598
   0.16701558  0.41646057  0.15057386
   0.91698009  0.91645813  0.15057302
   0.41703394  0.91636461  0.15057150
   0.91692388  0.41652924  0.15058106
   0.41698000  0.41644022  0.15058167
   0.66691279  0.66650212  0.20705402
   0.16691384  0.66649008  0.20705907
   0.66690356  0.16650580  0.20706606
   0.16684088  0.16660821  0.20708169
   0.91692531  0.66649836  0.20705907
   0.41692489  0.66647881  0.20706533
   0.91692483  0.16650279  0.20707472
   0.41696444  0.16651408  0.20706750
   0.66691774  0.91648263  0.20704247
   0.16694951  0.91644043  0.20704632
   0.66691619  0.41648927  0.20705451
   0.16692059  0.41647574  0.20705570
   0.91694862  0.91646302  0.20705234
   0.41701019  0.91640431  0.20704825
   0.91693872  0.41649154  0.20706075
   0.41692021  0.41647950  0.20706341
   0.50027978  0.49979377  0.22588073
   0.00028689  0.49982315  0.22588120
   0.50028634  0.99980068  0.22585522
   0.00032087  0.99976599  0.22586100
   0.75028163  0.49981788  0.22585426
   0.25025478  0.49979904  0.22586797
   0.75028843  0.99977207  0.22584367
   0.25032195  0.99981123  0.22577894
   0.50031865  0.74973130  0.22591369
   0.00028406  0.74979836  0.22589204
   0.50029403  0.24984793  0.22593294
   0.00016707  0.24989237  0.22594906
   0.75026900  0.74982321  0.22586653
   0.25028664  0.74977273  0.22589324
   0.75025445  0.24982835  0.22588794
   0.25034866  0.24982308  0.22589780
   0.50049323  0.49963036  0.28230622
   0.00050746  0.49968985  0.28230861
   0.50051326  0.99962592  0.28226963
   0.00059042  0.99956346  0.28227782
   0.75046223  0.49970716  0.28226697
   0.25044477  0.49965522  0.28228551
   0.75051117  0.99957699  0.28225112
   0.25060204  0.99960715  0.28215268
   0.50056708  0.74950314  0.28235555
   0.00050085  0.74963868  0.28232354
   0.50053877  0.24974325  0.28238249
   0.00022533  0.24985020  0.28240293
   0.75046194  0.74969292  0.28228697
   0.25051802  0.74957997  0.28232449
   0.75041097  0.24970710  0.28231657
   0.25066352  0.24970335  0.28232858
   0.33391136  0.33313811  0.30122891
   0.83340508  0.33325410  0.30123806
   0.33380595  0.83306366  0.30105928
   0.83384019  0.83295298  0.30113363
   0.58387232  0.33310574  0.30124071
   0.08398625  0.33295661  0.30108720
   0.58382893  0.83298159  0.30111992
   0.08388572  0.83291155  0.30115697
   0.33384565  0.58283997  0.30112979
   0.83381855  0.58302671  0.30109683
   0.33384511  0.08289932  0.30104604
   0.83388209  0.08288351  0.30102271
   0.58398402  0.58273453  0.30118585
   0.08386245  0.58297551  0.30116996
   0.58390051  0.08290761  0.30108309
   0.08406853  0.08289556  0.30098036
   0.33521369  0.33353579  0.35794219
   0.83172768  0.33404580  0.35797104
   0.33539578  0.83068281  0.35794201
   0.83379138  0.83313203  0.35758394
   0.58340430  0.33387774  0.35794106
   0.08415059  0.33215439  0.35705188
   0.58341455  0.83383745  0.35741302
   0.08395445  0.83233869  0.35757339
   0.33457005  0.58269894  0.35808676
   0.83378518  0.58332884  0.35743254
   0.33394381  0.08287272  0.35755673
   0.83371687  0.08298799  0.35742521
   0.58311814  0.58274645  0.35797486
   0.08400696  0.58352333  0.35756448
   0.58348233  0.08285384  0.35741484
   0.08357646  0.08417646  0.35701555
   0.16738831  0.16626464  0.37638399
   0.66658705  0.16634528  0.37588239
   0.16782798  0.66597217  0.37708566
   0.66647226  0.66717595  0.37570339
   0.41709781  0.16645002  0.37650388
   0.91723448  0.16650890  0.37592566
   0.41822761  0.66414112  0.37868881
   0.91729438  0.66642231  0.37636778
   0.16707394  0.41583255  0.37514061
   0.66525626  0.41740564  0.37822977
   0.16693214  0.91740423  0.37484041
   0.66719830  0.91647208  0.37647298
   0.41816720  0.41717345  0.37813222
   0.91768324  0.41596550  0.37554979
   0.41702482  0.91616094  0.37648800
   0.91722924  0.91640472  0.37637416
   0.16711518  0.16683419  0.43288961
   0.66641384  0.16615558  0.43204588
   0.16801399  0.66603452  0.43382865
   0.66632479  0.66854084  0.43181375
   0.41739002  0.16645202  0.43300071
   0.91744196  0.16616695  0.43218440
   0.41935304  0.66220039  0.43636042
   0.91742516  0.66623604  0.43282327
   0.16707447  0.41548005  0.43099439
   0.66533393  0.41770399  0.43562013
   0.16577893  0.91996783  0.43061811
   0.66732275  0.91666603  0.43296534
   0.41970524  0.41759250  0.43536296
   0.91925830  0.41591334  0.43163565
   0.41737908  0.91600889  0.43297172
   0.91727906  0.91652387  0.43283173
   0.00125108  0.99982226  0.45064250
   0.50053519  0.99965847  0.45138440
   0.00202660  0.49894935  0.45058972
   0.50281185  0.49665484  0.46006668
   0.25013697  0.99990970  0.45083243
   0.75048381  0.00037682  0.45112747
   0.24981111  0.49653360  0.45080173
   0.75337541  0.50241899  0.44966039
   0.99987388  0.25018325  0.45082390
   0.50122964  0.24893187  0.45186546
   0.00029317  0.74992317  0.45133623
   0.50143927  0.74974757  0.45196754
   0.25017875  0.25070950  0.45087320
   0.75157923  0.24662197  0.45067787
   0.24748978  0.75654894  0.45023939
   0.75060433  0.74978608  0.45106351
 
 position of ions in cartesian coordinates  (Angst):
  10.78830000  5.60957000 28.81730000
   9.92421000  6.47424000 28.13038000
  12.00347000  5.21621000 28.23742000
  10.27019000  6.93771000 26.83700000
  11.47751000  6.53025000 26.24973000
  12.35030000  5.68044000 26.94474000
  12.88610000  4.37527000 28.93378000
  14.10475000  4.00577000 28.35792000
  14.44717000  4.46338000 27.08321000
  13.57402000  5.29381000 26.37450000
   8.72180000  6.89549000 28.71979000
   7.87542000  7.77343000 28.03757000
   8.21584000  8.23016000 26.76138000
   9.40604000  7.81226000 26.15865000
   8.44182000  6.55450000 29.70957000
   6.95432000  8.10375000 28.50104000
   7.55741000  8.91257000 26.23981000
   9.65406000  8.17971000 25.16967000
  10.52354000  5.25562000 29.80812000
[...]
      9.55770     10.28898     20.19117        -0.016934     -0.185084      0.150681
     17.23444      9.93932     20.24943        -0.000013      0.001616     -0.005037
     11.51721      6.59496     20.24943        -0.013927     -0.024259     14.654351
      7.66996     13.27601      2.36055         0.000046     -0.000001     -0.001855
     15.33578     13.27623      2.36056         0.000052     -0.000056     -0.002141
      3.83654      6.63624      2.36014        -0.000011      0.000102     -0.002090
     11.50288      6.63649      2.36002         0.000113      0.000005     -0.002100
     11.50307     13.27627      2.36107         0.000034     -0.000176     -0.002061
     19.16942     13.27578      2.35968        -0.000137     -0.000095     -0.001890
      7.66973      6.63666      2.35986        -0.000102      0.000125     -0.002009
     15.33597      6.63629      2.36002        -0.000085      0.000067     -0.002170
      1.91979      3.31673      2.36097        -0.000058      0.000218     -0.002094
      9.58644      3.31684      2.35971        -0.000022      0.000020     -0.002075
      5.75299      9.95612      2.35978        -0.000059      0.000004     -0.002050
     13.41958      9.95600      2.35940         0.000069     -0.000081     -0.002203
      5.75286      3.31654      2.36091        -0.000048      0.000118     -0.002067
     13.41958      3.31696      2.36015         0.000137      0.000226     -0.002015
      9.58619      9.95598      2.35964        -0.000071     -0.000051     -0.002018
     17.25295      9.95635      2.35918         0.000033      0.000016     -0.002065
     19.16945     11.06270      3.12602         0.000072      0.000006      0.000640
     11.50290     11.06255      3.12544         0.000136      0.000194      0.000375
     15.33613      4.42335      3.12680        -0.000035     -0.000042      0.000651
      7.66976      4.42347      3.12568         0.000096     -0.000023      0.000408
      7.66968     11.06259      3.12593         0.000010      0.000044      0.000359
     15.33619     11.06266      3.12540        -0.000237      0.000111      0.000428
      3.83638      4.42332      3.12708         0.000068     -0.000003      0.000492
     11.50288      4.42343      3.12631        -0.000130     -0.000001      0.000473
     13.41946      1.10374      3.12590         0.000081      0.000158      0.000131
      5.75299      1.10381      3.12816        -0.000058     -0.000027      0.000330
     17.25274      7.74320      3.12524         0.000057     -0.000190      0.000387
      9.58635      7.74303      3.12635         0.000014     -0.000121      0.000417
      1.91991      1.10378      3.12751         0.000081      0.000040      0.000306
      9.58639      1.10375      3.12592        -0.000091      0.000211      0.000393
      5.75309      7.74306      3.12619         0.000019     -0.000188      0.000461
     13.41945      7.74308      3.12621        -0.000008     -0.000027      0.000556
     19.16947     11.06268      5.47312        -0.000113     -0.000033     -0.000170
     11.50303     11.06238      5.47244        -0.000193     -0.000288     -0.000130
     15.33620      4.42333      5.47390        -0.000039      0.000283     -0.000502
      7.66994      4.42339      5.47266        -0.000025      0.000322     -0.000476
      7.66943     11.06252      5.47299        -0.000122      0.000066     -0.000160
     15.33644     11.06248      5.47242         0.000325     -0.000133     -0.000319
      3.83628      4.42403      5.47425        -0.000094      0.000176     -0.000615
     11.50283      4.42327      5.47340         0.000167     -0.000060     -0.000497
     13.41926      1.10365      5.47292        -0.000129     -0.000165      0.000038
      5.75364      1.10355      5.47539         0.000062     -0.000098      0.000045
     17.25277      7.74348      5.47223        -0.000138      0.000254     -0.000311
      9.58640      7.74295      5.47347         0.000001      0.000130     -0.000318
      1.91940      1.10356      5.47471        -0.000134     -0.000237      0.000260
      9.58659      1.10368      5.47296         0.000125     -0.000308     -0.000453
      5.75294      7.74326      5.47330        -0.000021      0.000127     -0.000365
     13.41961      7.74320      5.47332         0.000092      0.000005     -0.000574
     15.33639      8.84962      6.25746        -0.000294     -0.000078      0.000303
      7.66972      8.84949      6.25772         0.000081     -0.000363      0.000021
     11.50295      2.21022      6.25795        -0.000364      0.000496      0.000055
      3.83633      2.21065      6.25834         0.000438      0.000896     -0.000514
     19.16913      8.84954      6.25770         0.000201     -0.000099      0.000084
     11.50295      8.84969      6.25791         0.000110     -0.000161      0.000049
     15.33542      2.21011      6.25838         0.000233      0.000737     -0.000389
      7.67069      2.21084      6.25818         0.000100      0.000411     -0.000339
     17.25274     12.16927      6.25719        -0.000034      0.000328      0.000020
      9.58639     12.16849      6.25724         0.000042     -0.000089     -0.000198
     13.41941      5.53004      6.25764        -0.000001     -0.000140      0.000206
      5.75364      5.53008      6.25755         0.000038     -0.000396     -0.000164
     21.08607     12.16942      6.25751        -0.000028      0.000068     -0.000090
     13.41968     12.16818      6.25745         0.000194      0.000125     -0.000293
     17.25250      5.53099      6.25785         0.000037     -0.000737     -0.000121
      9.58619      5.52981      6.25787        -0.000054     -0.000266      0.000062
     15.33550      8.85032      8.60475         0.002551      0.000002     -0.014442
      7.66893      8.85016      8.60496         0.000037      0.000188     -0.008751
     11.50214      2.21099      8.60525         0.001732     -0.002240     -0.011387
      3.83547      2.21235      8.60590        -0.000447      0.003089      0.016162
     19.16891      8.85027      8.60496         0.004778     -0.000501     -0.010325
     11.50226      8.85001      8.60522         0.004356     -0.003569     -0.008080
     15.33569      2.21095      8.60561         0.005691     -0.000796     -0.004505
      7.66989      2.21110      8.60531         0.004571     -0.005734     -0.009330
     17.25205     12.16975      8.60427         0.001932     -0.004213     -0.014412
      9.58572     12.16919      8.60443        -0.000573     -0.004353     -0.009980
     13.41883      5.53046      8.60477         0.001962     -0.002658     -0.009205
      5.75230      5.53028      8.60482        -0.000335     -0.001784     -0.007174
     21.08562     12.16949      8.60468         0.002369     -0.007068     -0.011318
     13.41962     12.16871      8.60451         0.008819     -0.005126     -0.010816
     17.25244      5.53049      8.60503         0.004893     -0.006436     -0.008445
      9.58557      5.53033      8.60514         0.005195     -0.003587     -0.009055
     11.50245      6.63664      9.38715        -0.004928      0.001792     -0.014784
      3.83629      6.63703      9.38717         0.003216      0.000780     -0.014648
     15.33585     13.27611      9.38609        -0.004250      0.007338     -0.012118
      7.66962     13.27565      9.38633        -0.000183     -0.001777     -0.016428
     15.33591      6.63696      9.38605        -0.009717      0.007208     -0.019871
      7.66886      6.63671      9.38662         0.009952      0.003609     -0.020503
     19.16891     13.27573      9.38561        -0.002256      0.003988     -0.016110
     11.50323     13.27625      9.38292         0.000063     -0.022636     -0.025444
     13.41919      9.95550      9.38852         0.007662     -0.007549     -0.015001
      5.75268      9.95639      9.38762        -0.006902      0.003916     -0.011702
      9.58646      3.31767      9.38932         0.009907     -0.000360     -0.015396
      1.91836      3.31826      9.38999        -0.022990      0.016705     -0.012094
     17.25238      9.95672      9.38656        -0.001471      0.002893     -0.013994
      9.58577      9.95605      9.38767        -0.000903     -0.005509     -0.018017
     13.41895      3.31741      9.38745        -0.009247      0.002221     -0.017067
      5.75386      3.31734      9.38786         0.020808      0.006527     -0.018934
     11.50447      6.63447     11.73208         0.005951     -0.002251     -0.001704
      3.83865      6.63526     11.73218        -0.002970     -0.001699      0.023354
     15.33799     13.27379     11.73056         0.004675     -0.008144     -0.012333
      7.67220     13.27296     11.73090         0.000821      0.001798      0.027609
     15.33783      6.63549     11.73045         0.010738     -0.006496      0.036897
      7.67067      6.63480     11.73122        -0.011351     -0.001955      0.038116
     19.17083     13.27314     11.72979         0.002185     -0.004621      0.016741
     11.50596     13.27354     11.72570        -0.001010      0.024682      0.071102
     13.42125      9.95247     11.73413        -0.005342      0.007462      0.005826
      5.75478      9.95427     11.73280         0.006929     -0.004749     -0.013590
      9.58941      3.31628     11.73525        -0.008980     -0.001872      0.008061
      1.91893      3.31770     11.73610         0.025321     -0.017123     -0.014474
     17.25434      9.95499     11.73128         0.001462     -0.002796      0.011448
      9.58784      9.95349     11.73284        -0.000213      0.006486      0.022227
     13.42042      3.31580     11.73251         0.009266     -0.002961      0.019060
      5.75777      3.31575     11.73301        -0.023532     -0.007876      0.034851
      7.67386      4.42366     12.51847         0.100551      0.010773      0.065274
     15.33348      4.42520     12.51885        -0.066063      0.024511      0.068492
     11.50492     11.06205     12.51142         0.035251     -0.138946      0.139487
     19.17109     11.06058     12.51451        -0.000928      0.005419     -0.006435
     11.50626      4.42323     12.51896        -0.007594      0.049169      0.062394
      3.84037      4.42125     12.51258        -0.026511     -0.039318     -0.162885
     15.33789     11.06096     12.51394        -0.000415      0.043291     -0.053994
      7.67173     11.06003     12.51548        -0.035966     -0.037052     -0.019671
      9.58719      7.73939     12.51435         0.049137      0.003147      0.158968
     17.25470      7.74187     12.51298         0.010485      0.013977     -0.037269
      5.75439      1.10080     12.51087         0.017350      0.006324      0.024308
     13.42133      1.10059     12.50990        -0.001327      0.002916     -0.004687
     13.42175      7.73799     12.51668        -0.073652     -0.001437      0.097825
      5.75524      7.74119     12.51602         0.013391      0.048704     -0.027353
      9.58855      1.10091     12.51241        -0.029017     -0.002093     -0.036409
      1.92454      1.10075     12.50814        -0.007787      0.077815     -0.126953
      7.69688      4.42894     14.87536        -0.005732     -0.005478      0.015725
     15.31383      4.43571     14.87656        -0.000030      0.000171      0.000488
     11.51104     11.03044     14.87535         0.001239     -0.010527     -0.003687
     19.17171     11.06296     14.86047         0.001767     -0.001799     -0.005339
     11.50500      4.43348     14.87531         0.007866     -0.001193     -0.003431
      3.83674      4.41060     14.83836        -0.010030     -0.005431      0.015229
     15.33810     11.07232     14.85337        -0.001301      0.001824     -0.002401
      7.66839     11.05242     14.86003        -0.002700      0.001826     -0.002865
      9.59722      7.73752     14.88137        -0.002253      0.012917     -0.008918
     17.25650      7.74588     14.85418         0.003173     -0.000441     -0.005774
      5.75570      1.10045     14.85934        -0.003083     -0.000709     -0.002513
     13.41960      1.10198     14.85388         0.005678     -0.005651     -0.005627
     13.40857      7.73815     14.87672        -0.004159      0.006569     -0.006878
      5.76166      7.74846     14.85966         0.001773      0.008980     -0.006657
      9.58173      1.10020     14.85344        -0.005614     -0.005801      0.006525
      1.92682      1.11776     14.83685         0.000722      0.002592      0.010085
      3.84123      2.20779     15.64176         0.006426     -0.001669      0.004905
     11.49606      2.20886     15.62092         0.015400      0.009084     -0.009760
      7.67898      8.84328     15.67092        -0.003088     -0.013788      0.003144
     15.33391      8.85927     15.61348         0.002367     -0.001742      0.000961
      7.67144      2.21025     15.64675         0.003809      0.001812      0.000510
     15.34048      2.21103     15.62272        -0.017052      0.004737     -0.002988
     11.50431      8.81897     15.73755         0.006086      0.013913      0.023701
     19.17399      8.84926     15.64109        -0.006727     -0.003348      0.005773
      5.74972      5.52174     15.59009         0.023828      0.014526     -0.005288
     13.40040      5.54263     15.71847        -0.000679     -0.008046      0.031051
      9.59284     12.18199     15.57762         0.001987     -0.015003      0.000243
     17.25627     12.16961     15.64546        -0.000398     -0.001471      0.003953
      9.61001      5.53954     15.71442         0.021202      0.012520     -0.000485
     17.25982      5.52350     15.60710         0.000517      0.010571      0.004534
     13.41798     12.16548     15.64609         0.001661     -0.002888      0.000559
     21.08948     12.16872     15.64136        -0.001863      0.004320      0.005011
      3.84141      2.21535     17.99002        -0.008616     -0.002022     -0.010692
     11.49195      2.20634     17.95496        -0.016414     -0.023563      0.035677
      7.68231      8.84411     18.02905         0.021513      0.029485      0.015073
     15.34211      8.87739     17.94531         0.001633      0.014459      0.008985
      7.67594      2.21028     17.99464        -0.009058     -0.009737     -0.001363
     15.34104      2.20649     17.96072         0.027688     -0.016673      0.006413
     11.50669      8.79320     18.13426        -0.043009     -0.048930     -0.034950
     19.17456      8.84679     17.98727         0.006637      0.010572     -0.010295
      5.74703      5.51706     17.91126        -0.022615     -0.011614      0.048629
     13.40388      5.54659     18.10350         0.048489      0.021968      0.140897
      9.59481     12.21603     17.89563        -0.000184      0.016203      0.034608
     17.25967     12.17219     17.99317        -0.000658      0.000323     -0.001475
      9.63681      5.54511     18.09281        -0.007394     -0.013363      0.085725
     17.28357      5.52281     17.93791         0.007242     -0.012147     -0.004155
     13.42224     12.16346     17.99344        -0.001049      0.006528      0.001081
     21.09115     12.17030     17.98762         0.002889     -0.006286     -0.010855
      7.68431     13.27640     18.72780        -0.003297      0.000256      0.006084
     15.33858     13.27422     18.75863         0.000671     -0.003738      0.005279
      3.85627      6.62543     18.72561        -0.010096      0.012098      0.008564
     11.51721      6.59496     19.11945        -0.036214      0.267346    -15.887899
     11.50115     13.27756     18.73569         0.005216      0.003170      0.003526
     11.51005      0.00500     18.74795        -0.000943     -0.010639      0.002879
      7.63702      6.59335     18.73442         0.113386      0.119415     -0.057251
     15.40329      6.67150     18.68698        -0.169531     -0.113734      0.202690
     17.24908      3.32212     18.73534         0.002915      0.005375      0.030765
      9.59378      3.30551     18.77862        -0.018134     -0.024516     -0.055499
      5.75378      9.95805     18.75663        -0.003448     -0.005391      0.038673
     13.43650      9.95572     18.78286         0.010901      0.000388     -0.033545
      5.75805      3.32911     18.73739        -0.005164     -0.010368      0.005904
     13.41468      3.27483     18.72927         0.053387      0.114923     -0.025976
      9.59484     10.04603     18.71105        -0.012842     -0.305582      0.133222
     17.25724      9.95623     18.74530        -0.000797     -0.001768      0.002372
 -----------------------------------------------------------------------------------
    total drift:                                0.000834     -0.000549      0.000825


--------------------------------------------------------------------------------------------------------



  FREE ENERGIE OF THE ION-ELECTRON SYSTEM (eV)
  ---------------------------------------------------
  free  energy   TOTEN  =     -1363.02444882 eV

  energy  without entropy=    -1363.02444882  energy(sigma->0) =    -1363.02444882
 


--------------------------------------------------------------------------------------------------------


    POTLOK:  cpu time      0.5595: real time      0.5646


--------------------------------------------------------------------------------------------------------




--------------------------------------------------------------------------------------------------------


 writing wavefunctions
     LOOP+:  cpu time  15625.6245: real time  15735.1114
 -----------------------------------------------------------------------------
|                                                                             |
|           W    W    AA    RRRRR   N    N  II  N    N   GGGG   !!!           |
|           W    W   A  A   R    R  NN   N  II  NN   N  G    G  !!!           |
|           W    W  A    A  R    R  N N  N  II  N N  N  G       !!!           |
|           W WW W  AAAAAA  RRRRR   N  N N  II  N  N N  G  GGG   !            |
|           WW  WW  A    A  R   R   N   NN  II  N   NN  G    G                |
|           W    W  A    A  R    R  N    N  II  N    N   GGGG   !!!           |
|                                                                             |
|     Tetrahedron method does not include variations of the Fermi             |
|     occupations, so forces and stress will be inaccurate. We suggest        |
|     using a different smearing scheme ISMEAR = 1 or 2 for metals in         |
|     relaxations.                                                            |
|                                                                             |
 -----------------------------------------------------------------------------

    4ORBIT:  cpu time      0.0000: real time      0.0000
 BZINTS: Fermi energy:    0.885602;  866.000000 electrons
         Band energy:-0.444220E+04;  BLOECHL correction:   -0.000000

 total amount of memory used by VASP MPI-rank0  1213677. kBytes
=======================================================================

   base      :      30000. kBytes
   nonl-proj :     326934. kBytes
   fftplans  :      19232. kBytes
   grid      :      32010. kBytes
   one-center:        248. kBytes
   wavefun   :     805253. kBytes
 
  
  
 General timing and accounting informations for this job:
 ========================================================
  
                  Total CPU time used (sec):    16079.093
                            User time (sec):    16050.363
                          System time (sec):       28.730
                         Elapsed time (sec):    16252.646
  
                   Maximum memory used (kb):     1731008.
                   Average memory used (kb):          N/A
  
                          Minor page faults:        82011
                          Major page faults:           20
                 Voluntary context switches:        49522
